32
Lattice="6.101140524 0.0 8.346e-06 0.0 7.972139299 0.0 1.7742e-05 0.0 13.011517291" Properties=species:S:1:pos:R:3:forces:R:3 energy=-7754.34296717937 stress="0.00011476970189993147 -0.0 -0.0 -0.0 -9.457023436554353e-05 -0.0 -0.0 -0.0 0.00023137571903026182" free_energy=-7754.34296717937 pbc="T T T"
Li       1.41082772       6.24961126       9.84030805      -0.00685096      -0.01722536      -0.00127475
Li       2.81362530       5.70859973       5.49358611       0.00684273       0.01722305       0.00128015
Li       4.46143469       5.70859431      11.99934140      -0.00685842       0.01722356       0.00127707
Li       5.86415406       6.24961660       3.33455999       0.00686613      -0.01722613      -0.00127475
Li       2.81362530       2.26353957       5.49358611       0.00684273      -0.01722305       0.00128015
Li       1.41082772       1.72252804       9.84030805      -0.00685096       0.01722536      -0.00127475
Li       5.86415406       1.72252270       3.33455999       0.00686613       0.01722613      -0.00127475
Li       4.46143469       2.26354498      11.99934140      -0.00685842      -0.01722356       0.00127707
Li       2.11221267       5.97910256       1.16119272       0.00000051      -0.00000231      -0.00000309
Li       5.16279962       5.97910335       7.66695668      -0.00000026      -0.00000231       0.00000129
Li       2.11221267       1.99303673       1.16119272       0.00000051       0.00000231      -0.00000309
Li       5.16279962       1.99303595       7.66695668      -0.00000026       0.00000231       0.00000129
P        6.08324297       0.00000000      13.00668316      -0.00657945       0.00000000      -0.00312903
P        4.24234698       3.98606965       2.32722061       0.00657971       0.00000000       0.00312800
P        3.03266301       3.98606965       8.83298249      -0.00658228       0.00000000       0.00312903
P        1.19178867       0.00000000       6.50091340       0.00658125       0.00000000      -0.00313135
S        4.04799465       0.00000000      12.88008093      -0.00556310       0.00000000      -0.00728908
S        0.17645499       3.98606965       2.45381716       0.00556515       0.00000000       0.00729088
S        0.99741170       3.98606965       8.95956893      -0.00556130       0.00000000       0.00728239
S        3.22703987       0.00000000       6.37433061       0.00556078       0.00000000      -0.00729113
S        0.75233131       0.00000000       1.93504072       0.00422664       0.00000000      -0.00923026
S        3.47210065       3.98606965       0.38733804      -0.00422381       0.00000000       0.00923309
S        3.80292011       3.98606965       6.89310319       0.00422869       0.00000000       0.00923412
S        0.42153266       0.00000000       8.44079397      -0.00423384       0.00000000      -0.00923515
S        0.71317768       6.24863990      12.16475492      -0.00413382      -0.00558521       0.01582385
S        3.51127171       5.70956914       3.16914040       0.00413588       0.00558932      -0.01581974
S        3.76372652       5.70957106       9.67490640      -0.00414102       0.00558726      -0.01582565
S        0.46072440       6.24863769       5.65899015       0.00413999      -0.00558624       0.01582000
S        3.51127171       2.26257016       3.16914040       0.00413588      -0.00558932      -0.01581974
S        0.71317768       1.72349940      12.16475492      -0.00413382       0.00558521       0.01582385
S        0.46072440       1.72350161       5.65899015       0.00413999       0.00558624       0.01582000
S        3.76372652       2.26256824       9.67490640      -0.00414102      -0.00558726      -0.01582565
32
Lattice="6.137631529 0.0 -4.07e-07 -0.0 7.691398337 -0.0 -7.43e-07 -0.0 13.089433461" Properties=species:S:1:pos:R:3:forces:R:3 energy=-7754.489685110726 stress="0.0002433117680278547 -0.0 0.0 -0.0 0.0002019946753438794 0.0 0.0 0.0 0.00030758280109181635" free_energy=-7754.489685110726 pbc="T T T"
Li       0.03495887       1.86606316       3.23544559       0.00678977      -0.00229548      -0.00415207
Li       3.10375372       1.97963567       5.64180788       0.00678128       0.00230037       0.00415645
Li       3.10375372       5.71176267       5.64180788       0.00678128      -0.00230037       0.00415645
Li       0.03495887       5.82533517       3.23544559       0.00678977       0.00229548      -0.00415207
Li       3.04220539       0.00000000       2.12567384      -0.00559961      -0.00000000      -0.00070448
Li       6.11099685       3.84569917       0.20685948      -0.00558778      -0.00000000       0.00071554
Li       0.03495796       1.86606309       9.78016308       0.00678951      -0.00229368      -0.00415387
Li       3.10375275       1.97963579      12.18652384       0.00678231       0.00229857       0.00416030
Li       3.10375275       5.71176255      12.18652384       0.00678231      -0.00229857       0.00416030
Li       0.03495796       5.82533525       9.78016308       0.00678951       0.00229368      -0.00415387
Li       3.04220502       0.00000000       8.67038986      -0.00560243      -0.00000000      -0.00071142
Li       6.11099653       3.84569917       6.75157552      -0.00558701      -0.00000000       0.00070551
P        0.04258943       0.00000000      13.06094914       0.00115623       0.00000000       0.00381963
P        3.11140813       3.84569917       2.36102196       0.00116368       0.00000000      -0.00381526
P        0.04258971       0.00000000       6.51623222       0.00115802       0.00000000       0.00381449
P        3.11140788       3.84569917       8.90573840       0.00116214       0.00000000      -0.00381963
S        5.50386199       1.68908882       5.55873724       0.00599581      -0.00928657       0.00474626
S        2.43505279       2.15660777       3.31851426       0.00600867       0.00929300      -0.00475140
S        2.43505279       5.53479057       3.31851426       0.00600867      -0.00929300      -0.00475140
S        5.50386199       6.00230952       5.55873724       0.00599581       0.00928657       0.00474626
S        5.49544902       0.00000000       1.90715253      -0.00879060      -0.00000000      -0.01522453
S        2.42662644       3.84569917       0.42538796      -0.00879343      -0.00000000       0.01522067
S        2.09881676       0.00000000       6.45596716      -0.01235055      -0.00000000       0.00637994
S        5.16763482       3.84569917       2.42128948      -0.01234824      -0.00000000      -0.00638842
S        5.50386147       1.68908889      12.10345462       0.00599736      -0.00928862       0.00474394
S        2.43505232       2.15660768       9.86323027       0.00600893       0.00929377      -0.00474780
S        2.43505232       5.53479065       9.86323027       0.00600893      -0.00929377      -0.00474780
S        5.50386147       6.00230945      12.10345462       0.00599736       0.00928862       0.00474394
S        5.49544869       0.00000000       8.45186900      -0.00879240      -0.00000000      -0.01521630
S        2.42662600       3.84569917       6.97010434      -0.00879137      -0.00000000       0.01522890
S        2.09881649       0.00000000      13.00068437      -0.01235389      -0.00000000       0.00637582
S        5.16763457       3.84569917       8.96600565      -0.01235055      -0.00000000      -0.00638431
