
     Program PWSCF v.7.0 starts on  4Feb2023 at 16:45:55 

     This program is part of the open-source Quantum ESPRESSO suite
     for quantum simulation of materials; please cite
         "P. Giannozzi et al., J. Phys.:Condens. Matter 21 395502 (2009);
         "P. Giannozzi et al., J. Phys.:Condens. Matter 29 465901 (2017);
         "P. Giannozzi et al., J. Chem. Phys. 152 154105 (2020);
          URL http://www.quantum-espresso.org", 
     in publications or presentations arising from this work. More details at
     http://www.quantum-espresso.org/quote

     Parallel version (MPI & OpenMP), running on     128 processor cores
     Number of MPI processes:                64
     Threads/MPI process:                     2

     MPI processes distributed on     1 nodes
     R & G space division:  proc/nbgrp/npool/nimage =      64
     239849 MiB available memory on the printing compute node when the environment starts
 
     Reading input from beta_align_min_energy.in

     Current dimensions of program PWSCF are:
     Max number of different atomic species (ntypx) = 10
     Max number of k-points (npk) =  40000
     Max angular momentum in pseudopotentials (lmaxx) =  4
     Message from routine setup:
     using ibrav=0 with symmetry is DISCOURAGED, use correct ibrav instead

     Subspace diagonalization in iterative solution of the eigenvalue problem:
     one sub-group per band group will be used
     scalapack distributed-memory algorithm (size of sub-group:  8*  8 procs)

 
     Parallelization info
     --------------------
     sticks:   dense  smooth     PW     G-vecs:    dense   smooth      PW
     Min         107     107     28                12464    12464    1676
     Max         109     109     29                12478    12478    1681
     Sum        6887    6887   1807               798023   798023  107355
 
     Using Slab Decomposition
 


     bravais-lattice index     =            0
     lattice parameter (alat)  =      11.7412  a.u.
     unit-cell volume          =    4495.3886 (a.u.)^3
     number of atoms/cell      =           32
     number of atomic types    =            3
     number of electrons       =       152.00
     number of Kohn-Sham states=           76
     kinetic-energy cutoff     =     120.0000  Ry
     charge density cutoff     =     480.0000  Ry
     scf convergence threshold =      1.0E-10
     mixing beta               =       0.7000
     number of iterations used =            8  plain     mixing
     energy convergence thresh.=      1.0E-04
     force convergence thresh. =      1.0E-03
     press convergence thresh. =      5.0E-01
     Exchange-correlation= PBESOL
                           (   1   4  10   8   0   0   0)
     nstep                     =           50


     celldm(1)=  11.741216  celldm(2)=   0.000000  celldm(3)=   0.000000
     celldm(4)=   0.000000  celldm(5)=   0.000000  celldm(6)=   0.000000

     crystal axes: (cart. coord. in units of alat)
               a(1) = (   1.000000   0.000000   0.000000 )  
               a(2) = (   0.000000   1.308903   0.000000 )  
               a(3) = (   0.000000   0.000000   2.121879 )  

     reciprocal axes: (cart. coord. in units 2 pi/alat)
               b(1) = (  1.000000  0.000000  0.000000 )  
               b(2) = (  0.000000  0.763999  0.000000 )  
               b(3) = (  0.000000  0.000000  0.471280 )  


     PseudoPot. # 1 for Li read from file:
     /users/dtisi/LIPS/Training-set/pseudo/Li.pbesol-s-rrkjus_psl.0.2.1.UPF
     MD5 check sum: 72891494af2ab24c7158e97891c09914
     Pseudo is Ultrasoft, Zval =  3.0
     Generated using "atomic" code by A. Dal Corso  v.5.0.2 svn rev. 9415
     Using radial grid of 1017 points,  4 beta functions with: 
                l(1) =   0
                l(2) =   0
                l(3) =   1
                l(4) =   1
     Q(r) pseudized with 0 coefficients 


     PseudoPot. # 2 for P  read from file:
     /users/dtisi/LIPS/Training-set/pseudo/P.pbesol-nl-rrkjus_psl.1.0.0.UPF
     MD5 check sum: 1a601e2f77c1a59e29acfb3f54c43dd8
     Pseudo is Ultrasoft + core correction, Zval =  5.0
     Generated using &quot;atomic&quot; code by A. Dal Corso  v.6.3
     Using radial grid of 1147 points,  4 beta functions with: 
                l(1) =   0
                l(2) =   0
                l(3) =   1
                l(4) =   1
     Q(r) pseudized with 0 coefficients 


     PseudoPot. # 3 for S  read from file:
     /users/dtisi/LIPS/Training-set/pseudo/S.pbesol-nl-rrkjus_psl.1.0.0.UPF
     MD5 check sum: 2d883303d1f226e93f308aa6cca9b8a1
     Pseudo is Ultrasoft + core correction, Zval =  6.0
     Generated using &quot;atomic&quot; code by A. Dal Corso  v.6.3
     Using radial grid of 1151 points,  4 beta functions with: 
                l(1) =   0
                l(2) =   0
                l(3) =   1
                l(4) =   1
     Q(r) pseudized with 0 coefficients 


     atomic species   valence    mass     pseudopotential
        Li             3.00     6.94000     Li( 1.00)
        P              5.00    30.97376     P ( 1.00)
        S              6.00    32.06000     S ( 1.00)

      2 Sym. Ops. (no inversion) found


                                    s                        frac. trans.

      isym =  1     identity                                     

 cryst.   s( 1) = (     1          0          0      )
                  (     0          1          0      )
                  (     0          0          1      )

 cart.    s( 1) = (  1.0000000  0.0000000  0.0000000 )
                  (  0.0000000  1.0000000  0.0000000 )
                  (  0.0000000  0.0000000  1.0000000 )


      isym =  2     inv. 180 deg rotation - cart. axis [0,1,0]   

 cryst.   s( 2) = (     1          0          0      )
                  (     0         -1          0      )
                  (     0          0          1      )

 cart.    s( 2) = (  1.0000000  0.0000000  0.0000000 )
                  (  0.0000000 -1.0000000  0.0000000 )
                  (  0.0000000  0.0000000  1.0000000 )


   Cartesian axes

     site n.     atom                  positions (alat units)
         1           Li  tau(   1) = (   0.2352410   1.0231955   1.6065721  )
         2           Li  tau(   2) = (   0.4571590   0.9401587   0.8940325  )
         3           Li  tau(   3) = (   0.7352410   0.9401587   1.9549719  )
         4           Li  tau(   4) = (   0.9571590   1.0231955   0.5456327  )
         5           Li  tau(   5) = (   0.4571590   0.3687441   0.8940325  )
         6           Li  tau(   6) = (   0.2352410   0.2857073   1.6065721  )
         7           Li  tau(   7) = (   0.9571590   0.2857073   0.5456327  )
         8           Li  tau(   8) = (   0.7352410   0.3687441   1.9549719  )
         9           Li  tau(   9) = (   0.3462000   0.9816771   0.1893628  )
        10           Li  tau(  10) = (   0.8462000   0.9816771   1.2503023  )
        11           Li  tau(  11) = (   0.3462000   0.3272257   0.1893628  )
        12           Li  tau(  12) = (   0.8462000   0.3272257   1.2503023  )
        13           P   tau(  13) = (   0.0000000   0.0000000   0.0000000  )
        14           P   tau(  14) = (   0.6924000   0.6544514   0.3787257  )
        15           P   tau(  15) = (   0.5000000   0.6544514   1.4396651  )
        16           P   tau(  16) = (   0.1924000   0.0000000   1.0609394  )
        17           S   tau(  17) = (   0.6720380   0.0000000   2.0961596  )
        18           S   tau(  18) = (   0.0203620   0.6544514   0.4044450  )
        19           S   tau(  19) = (   0.1720380   0.6544514   1.4653844  )
        20           S   tau(  20) = (   0.5203620   0.0000000   1.0352202  )
        21           S   tau(  21) = (   0.1190070   0.0000000   0.3155573  )
        22           S   tau(  22) = (   0.5733930   0.6544514   0.0631683  )
        23           S   tau(  23) = (   0.6190070   0.6544514   1.1241078  )
        24           S   tau(  24) = (   0.0733930   0.0000000   1.3764968  )
        25           S   tau(  25) = (   0.1194520   1.0308945   1.9877868  )
        26           S   tau(  26) = (   0.5729480   0.9324597   0.5128178  )
        27           S   tau(  27) = (   0.6194520   0.9324597   1.5737573  )
        28           S   tau(  28) = (   0.0729480   1.0308945   0.9268473  )
        29           S   tau(  29) = (   0.5729480   0.3764431   0.5128178  )
        30           S   tau(  30) = (   0.1194520   0.2780083   1.9877868  )
        31           S   tau(  31) = (   0.0729480   0.2780083   0.9268473  )
        32           S   tau(  32) = (   0.6194520   0.3764431   1.5737573  )

   Crystallographic axes

     site n.     atom                  positions (cryst. coord.)
         1           Li  tau(   1) = (  0.2352410  0.7817200  0.7571460  )
         2           Li  tau(   2) = (  0.4571590  0.7182800  0.4213400  )
         3           Li  tau(   3) = (  0.7352410  0.7182800  0.9213400  )
         4           Li  tau(   4) = (  0.9571590  0.7817200  0.2571460  )
         5           Li  tau(   5) = (  0.4571590  0.2817200  0.4213400  )
         6           Li  tau(   6) = (  0.2352410  0.2182800  0.7571460  )
         7           Li  tau(   7) = (  0.9571590  0.2182800  0.2571460  )
         8           Li  tau(   8) = (  0.7352410  0.2817200  0.9213400  )
         9           Li  tau(   9) = (  0.3462000  0.7500000  0.0892430  )
        10           Li  tau(  10) = (  0.8462000  0.7500000  0.5892430  )
        11           Li  tau(  11) = (  0.3462000  0.2500000  0.0892430  )
        12           Li  tau(  12) = (  0.8462000  0.2500000  0.5892430  )
        13           P   tau(  13) = (  0.0000000  0.0000000  0.0000000  )
        14           P   tau(  14) = (  0.6924000  0.5000000  0.1784860  )
        15           P   tau(  15) = (  0.5000000  0.5000000  0.6784860  )
        16           P   tau(  16) = (  0.1924000  0.0000000  0.5000000  )
        17           S   tau(  17) = (  0.6720380  0.0000000  0.9878790  )
        18           S   tau(  18) = (  0.0203620  0.5000000  0.1906070  )
        19           S   tau(  19) = (  0.1720380  0.5000000  0.6906070  )
        20           S   tau(  20) = (  0.5203620  0.0000000  0.4878790  )
        21           S   tau(  21) = (  0.1190070  0.0000000  0.1487160  )
        22           S   tau(  22) = (  0.5733930  0.5000000  0.0297700  )
        23           S   tau(  23) = (  0.6190070  0.5000000  0.5297700  )
        24           S   tau(  24) = (  0.0733930  0.0000000  0.6487160  )
        25           S   tau(  25) = (  0.1194520  0.7876020  0.9368050  )
        26           S   tau(  26) = (  0.5729480  0.7123980  0.2416810  )
        27           S   tau(  27) = (  0.6194520  0.7123980  0.7416810  )
        28           S   tau(  28) = (  0.0729480  0.7876020  0.4368050  )
        29           S   tau(  29) = (  0.5729480  0.2876020  0.2416810  )
        30           S   tau(  30) = (  0.1194520  0.2123980  0.9368050  )
        31           S   tau(  31) = (  0.0729480  0.2123980  0.4368050  )
        32           S   tau(  32) = (  0.6194520  0.2876020  0.7416810  )

     number of k points=    16
                       cart. coord. in units 2pi/alat
        k(    1) = (   0.1250000   0.0954998   0.0589101), wk =   0.1250000
        k(    2) = (   0.1250000   0.0954998   0.1767302), wk =   0.1250000
        k(    3) = (   0.1250000   0.2864995   0.0589101), wk =   0.1250000
        k(    4) = (   0.1250000   0.2864995   0.1767302), wk =   0.1250000
        k(    5) = (   0.3750000   0.0954998   0.0589101), wk =   0.1250000
        k(    6) = (   0.3750000   0.0954998   0.1767302), wk =   0.1250000
        k(    7) = (   0.3750000   0.2864995   0.0589101), wk =   0.1250000
        k(    8) = (   0.3750000   0.2864995   0.1767302), wk =   0.1250000
        k(    9) = (   0.1250000  -0.0954998  -0.0589101), wk =   0.1250000
        k(   10) = (   0.1250000  -0.0954998  -0.1767302), wk =   0.1250000
        k(   11) = (   0.1250000  -0.2864995  -0.0589101), wk =   0.1250000
        k(   12) = (   0.1250000  -0.2864995  -0.1767302), wk =   0.1250000
        k(   13) = (   0.3750000  -0.0954998  -0.0589101), wk =   0.1250000
        k(   14) = (   0.3750000  -0.0954998  -0.1767302), wk =   0.1250000
        k(   15) = (   0.3750000  -0.2864995  -0.0589101), wk =   0.1250000
        k(   16) = (   0.3750000  -0.2864995  -0.1767302), wk =   0.1250000

                       cryst. coord.
        k(    1) = (   0.1250000   0.1250000   0.1250000), wk =   0.1250000
        k(    2) = (   0.1250000   0.1250000   0.3750000), wk =   0.1250000
        k(    3) = (   0.1250000   0.3750000   0.1250000), wk =   0.1250000
        k(    4) = (   0.1250000   0.3750000   0.3750000), wk =   0.1250000
        k(    5) = (   0.3750000   0.1250000   0.1250000), wk =   0.1250000
        k(    6) = (   0.3750000   0.1250000   0.3750000), wk =   0.1250000
        k(    7) = (   0.3750000   0.3750000   0.1250000), wk =   0.1250000
        k(    8) = (   0.3750000   0.3750000   0.3750000), wk =   0.1250000
        k(    9) = (   0.1250000  -0.1250000  -0.1250000), wk =   0.1250000
        k(   10) = (   0.1250000  -0.1250000  -0.3750000), wk =   0.1250000
        k(   11) = (   0.1250000  -0.3750000  -0.1250000), wk =   0.1250000
        k(   12) = (   0.1250000  -0.3750000  -0.3750000), wk =   0.1250000
        k(   13) = (   0.3750000  -0.1250000  -0.1250000), wk =   0.1250000
        k(   14) = (   0.3750000  -0.1250000  -0.3750000), wk =   0.1250000
        k(   15) = (   0.3750000  -0.3750000  -0.1250000), wk =   0.1250000
        k(   16) = (   0.3750000  -0.3750000  -0.3750000), wk =   0.1250000

     Dense  grid:   798023 G-vectors     FFT dimensions: (  81, 108, 180)

     Dynamical RAM for                 wfc:       1.81 MB

     Dynamical RAM for     wfc (w. buffer):       1.81 MB

     Dynamical RAM for           str. fact:       0.57 MB

     Dynamical RAM for           local pot:       0.00 MB

     Dynamical RAM for          nlocal pot:       6.09 MB

     Dynamical RAM for                qrad:       3.01 MB

     Dynamical RAM for          rho,v,vnew:       1.17 MB

     Dynamical RAM for               rhoin:       0.39 MB

     Dynamical RAM for            rho*nmix:       3.04 MB

     Dynamical RAM for           G-vectors:       0.81 MB

     Dynamical RAM for          h,s,v(r/c):       0.02 MB

     Dynamical RAM for          <psi|beta>:       0.30 MB

     Dynamical RAM for                 psi:       3.62 MB

     Dynamical RAM for                hpsi:       3.62 MB

     Dynamical RAM for                spsi:       3.62 MB

     Dynamical RAM for      wfcinit/wfcrot:       5.20 MB

     Dynamical RAM for           addusdens:      11.22 MB

     Dynamical RAM for          addusforce:      17.04 MB

     Dynamical RAM for         addusstress:       9.51 MB

     Estimated static dynamical RAM per process >      15.61 MB

     Estimated max dynamical RAM per process >      35.69 MB

     Estimated total dynamical RAM >       2.23 GB

     Initial potential from superposition of free atoms

     starting charge     151.9412, renormalised to     152.0000
     Starting wfcs are  104 randomized atomic wfcs

     total cpu time spent up to now is       13.4 secs

     per-process dynamical memory:    15.6 Mb

     Self-consistent Calculation

     iteration #  1     ecut=   120.00 Ry     beta= 0.70
     Davidson diagonalization with overlap

---- Real-time Memory Report at c_bands before calling an iterative solver
           133 MiB given to the printing process from OS
            15 MiB allocation reported by mallinfo(arena+hblkhd)
        234748 MiB available memory on the node where the printing process lives
------------------
     ethr =  1.00E-02,  avg # of iterations =  2.0

     Threshold (ethr) on eigenvalues was too large:
     Diagonalizing with lowered threshold

     Davidson diagonalization with overlap

---- Real-time Memory Report at c_bands before calling an iterative solver
           154 MiB given to the printing process from OS
            15 MiB allocation reported by mallinfo(arena+hblkhd)
        233770 MiB available memory on the node where the printing process lives
------------------
     ethr =  8.14E-04,  avg # of iterations =  2.0

     total cpu time spent up to now is       38.0 secs

     total energy              =    -569.55118550 Ry
     estimated scf accuracy    <       1.09956233 Ry

     iteration #  2     ecut=   120.00 Ry     beta= 0.70
     Davidson diagonalization with overlap

---- Real-time Memory Report at c_bands before calling an iterative solver
           156 MiB given to the printing process from OS
            15 MiB allocation reported by mallinfo(arena+hblkhd)
        233951 MiB available memory on the node where the printing process lives
------------------
     ethr =  7.23E-04,  avg # of iterations =  3.0

     total cpu time spent up to now is       53.5 secs

     total energy              =    -569.79668440 Ry
     estimated scf accuracy    <       0.52549635 Ry

     iteration #  3     ecut=   120.00 Ry     beta= 0.70
     Davidson diagonalization with overlap

---- Real-time Memory Report at c_bands before calling an iterative solver
           167 MiB given to the printing process from OS
            15 MiB allocation reported by mallinfo(arena+hblkhd)
        233084 MiB available memory on the node where the printing process lives
------------------
     ethr =  3.46E-04,  avg # of iterations =  3.0

     total cpu time spent up to now is       69.0 secs

     total energy              =    -569.91405762 Ry
     estimated scf accuracy    <       0.03466216 Ry

     iteration #  4     ecut=   120.00 Ry     beta= 0.70
     Davidson diagonalization with overlap

---- Real-time Memory Report at c_bands before calling an iterative solver
           167 MiB given to the printing process from OS
            15 MiB allocation reported by mallinfo(arena+hblkhd)
        233031 MiB available memory on the node where the printing process lives
------------------
     ethr =  2.28E-05,  avg # of iterations =  3.5

     total cpu time spent up to now is       82.6 secs

     total energy              =    -569.92350328 Ry
     estimated scf accuracy    <       0.00190601 Ry

     iteration #  5     ecut=   120.00 Ry     beta= 0.70
     Davidson diagonalization with overlap

---- Real-time Memory Report at c_bands before calling an iterative solver
           168 MiB given to the printing process from OS
            15 MiB allocation reported by mallinfo(arena+hblkhd)
        233038 MiB available memory on the node where the printing process lives
------------------
     ethr =  1.25E-06,  avg # of iterations =  5.0

     total cpu time spent up to now is      102.6 secs

     total energy              =    -569.92465056 Ry
     estimated scf accuracy    <       0.00034694 Ry

     iteration #  6     ecut=   120.00 Ry     beta= 0.70
     Davidson diagonalization with overlap

---- Real-time Memory Report at c_bands before calling an iterative solver
           169 MiB given to the printing process from OS
            15 MiB allocation reported by mallinfo(arena+hblkhd)
        232996 MiB available memory on the node where the printing process lives
------------------
     ethr =  2.28E-07,  avg # of iterations =  3.6

     total cpu time spent up to now is      122.3 secs

     total energy              =    -569.92474482 Ry
     estimated scf accuracy    <       0.00003005 Ry

     iteration #  7     ecut=   120.00 Ry     beta= 0.70
     Davidson diagonalization with overlap

---- Real-time Memory Report at c_bands before calling an iterative solver
           169 MiB given to the printing process from OS
            15 MiB allocation reported by mallinfo(arena+hblkhd)
        232930 MiB available memory on the node where the printing process lives
------------------
     ethr =  1.98E-08,  avg # of iterations =  5.2

     total cpu time spent up to now is      144.9 secs

     total energy              =    -569.92476023 Ry
     estimated scf accuracy    <       0.00001487 Ry

     iteration #  8     ecut=   120.00 Ry     beta= 0.70
     Davidson diagonalization with overlap

---- Real-time Memory Report at c_bands before calling an iterative solver
           171 MiB given to the printing process from OS
            15 MiB allocation reported by mallinfo(arena+hblkhd)
        232982 MiB available memory on the node where the printing process lives
------------------
     ethr =  9.78E-09,  avg # of iterations =  2.1

     total cpu time spent up to now is      157.3 secs

     total energy              =    -569.92476317 Ry
     estimated scf accuracy    <       0.00000053 Ry

     iteration #  9     ecut=   120.00 Ry     beta= 0.70
     Davidson diagonalization with overlap

---- Real-time Memory Report at c_bands before calling an iterative solver
           171 MiB given to the printing process from OS
            15 MiB allocation reported by mallinfo(arena+hblkhd)
        232888 MiB available memory on the node where the printing process lives
------------------
     ethr =  3.51E-10,  avg # of iterations =  6.8

     total cpu time spent up to now is      183.6 secs

     total energy              =    -569.92476379 Ry
     estimated scf accuracy    <       0.00000140 Ry

     iteration # 10     ecut=   120.00 Ry     beta= 0.70
     Davidson diagonalization with overlap

---- Real-time Memory Report at c_bands before calling an iterative solver
           174 MiB given to the printing process from OS
            15 MiB allocation reported by mallinfo(arena+hblkhd)
        232707 MiB available memory on the node where the printing process lives
------------------
     ethr =  3.51E-10,  avg # of iterations =  2.6

     total cpu time spent up to now is      196.3 secs

     total energy              =    -569.92476383 Ry
     estimated scf accuracy    <       0.00000024 Ry

     iteration # 11     ecut=   120.00 Ry     beta= 0.70
     Davidson diagonalization with overlap

---- Real-time Memory Report at c_bands before calling an iterative solver
           174 MiB given to the printing process from OS
            15 MiB allocation reported by mallinfo(arena+hblkhd)
        232745 MiB available memory on the node where the printing process lives
------------------
     ethr =  1.55E-10,  avg # of iterations =  3.6

     total cpu time spent up to now is      210.5 secs

     total energy              =    -569.92476389 Ry
     estimated scf accuracy    <          6.8E-09 Ry

     iteration # 12     ecut=   120.00 Ry     beta= 0.70
     Davidson diagonalization with overlap

---- Real-time Memory Report at c_bands before calling an iterative solver
           174 MiB given to the printing process from OS
            15 MiB allocation reported by mallinfo(arena+hblkhd)
        232790 MiB available memory on the node where the printing process lives
------------------
     ethr =  4.46E-12,  avg # of iterations =  6.6

     total cpu time spent up to now is      235.7 secs

     total energy              =    -569.92476389 Ry
     estimated scf accuracy    <       0.00000002 Ry

     iteration # 13     ecut=   120.00 Ry     beta= 0.70
     Davidson diagonalization with overlap

---- Real-time Memory Report at c_bands before calling an iterative solver
           174 MiB given to the printing process from OS
            15 MiB allocation reported by mallinfo(arena+hblkhd)
        232732 MiB available memory on the node where the printing process lives
------------------
     ethr =  4.46E-12,  avg # of iterations =  3.2

     total cpu time spent up to now is      250.2 secs

     total energy              =    -569.92476390 Ry
     estimated scf accuracy    <          8.8E-10 Ry

     iteration # 14     ecut=   120.00 Ry     beta= 0.70
     Davidson diagonalization with overlap

---- Real-time Memory Report at c_bands before calling an iterative solver
           174 MiB given to the printing process from OS
            15 MiB allocation reported by mallinfo(arena+hblkhd)
        232720 MiB available memory on the node where the printing process lives
------------------
     ethr =  5.76E-13,  avg # of iterations =  5.0

     total cpu time spent up to now is      268.2 secs

     total energy              =    -569.92476390 Ry
     estimated scf accuracy    <          6.9E-10 Ry

     iteration # 15     ecut=   120.00 Ry     beta= 0.70
     Davidson diagonalization with overlap

---- Real-time Memory Report at c_bands before calling an iterative solver
           175 MiB given to the printing process from OS
            15 MiB allocation reported by mallinfo(arena+hblkhd)
        232734 MiB available memory on the node where the printing process lives
------------------
     ethr =  4.55E-13,  avg # of iterations =  2.0

     total cpu time spent up to now is      279.5 secs

     total energy              =    -569.92476390 Ry
     estimated scf accuracy    <          1.6E-10 Ry

     iteration # 16     ecut=   120.00 Ry     beta= 0.70
     Davidson diagonalization with overlap

---- Real-time Memory Report at c_bands before calling an iterative solver
           175 MiB given to the printing process from OS
            15 MiB allocation reported by mallinfo(arena+hblkhd)
        232743 MiB available memory on the node where the printing process lives
------------------
     ethr =  1.03E-13,  avg # of iterations =  3.4

     total cpu time spent up to now is      294.7 secs

     End of self-consistent calculation

          k = 0.1250 0.0955 0.0589 ( 99800 PWs)   bands (ev):

   -41.8428 -41.8428 -41.8426 -41.8426 -41.7239 -41.7239 -41.7235 -41.7235
   -41.7233 -41.7233 -41.7229 -41.7229 -12.5457 -12.5162 -12.4769 -12.4680
    -9.6569  -9.6485  -9.6439  -9.6004  -9.5789  -9.5659  -9.5336  -9.5246
    -9.3696  -9.3580  -9.3067  -9.2714  -5.5067  -5.3058  -5.1705  -5.0568
    -2.5648  -2.4083  -2.3978  -2.3591  -2.3343  -2.2710  -2.2382  -2.1580
    -2.1361  -2.0283  -1.8812  -1.8379  -0.4001  -0.3380  -0.0207   0.0728
     0.1683   0.2274   0.2562   0.3283   0.4646   0.4967   0.6363   0.6995
     0.7778   0.8073   0.8825   1.0329   1.1110   1.1812   1.2132   1.2904
     1.2953   1.3389   1.4442   1.4600   1.5339   1.5593   1.6077   1.7154
     1.8370   1.9114   2.0185   2.1405

     occupation numbers 
     1.0000   1.0000   1.0000   1.0000   1.0000   1.0000   1.0000   1.0000
     1.0000   1.0000   1.0000   1.0000   1.0000   1.0000   1.0000   1.0000
     1.0000   1.0000   1.0000   1.0000   1.0000   1.0000   1.0000   1.0000
     1.0000   1.0000   1.0000   1.0000   1.0000   1.0000   1.0000   1.0000
     1.0000   1.0000   1.0000   1.0000   1.0000   1.0000   1.0000   1.0000
     1.0000   1.0000   1.0000   1.0000   1.0000   1.0000   1.0000   1.0000
     1.0000   1.0000   1.0000   1.0000   1.0000   1.0000   1.0000   1.0000
     1.0000   1.0000   1.0000   1.0000   1.0000   1.0000   1.0000   1.0000
     1.0000   1.0000   1.0000   1.0000   1.0000   1.0000   1.0000   1.0000
     1.0000   1.0000   1.0000   1.0000

          k = 0.1250 0.0955 0.1767 ( 99857 PWs)   bands (ev):

   -41.8428 -41.8428 -41.8426 -41.8426 -41.7239 -41.7239 -41.7235 -41.7235
   -41.7233 -41.7233 -41.7229 -41.7229 -12.5382 -12.5264 -12.4727 -12.4694
    -9.6539  -9.6498  -9.6321  -9.6137  -9.5742  -9.5692  -9.5311  -9.5273
    -9.3691  -9.3641  -9.2944  -9.2800  -5.4624  -5.3866  -5.1142  -5.0745
    -2.5112  -2.4395  -2.3930  -2.3834  -2.3115  -2.2875  -2.2148  -2.1807
    -2.1170  -2.0799  -1.8692  -1.8526  -0.3773  -0.3500  -0.0169   0.0228
     0.1650   0.1954   0.3074   0.3567   0.4720   0.5094   0.7028   0.7294
     0.7808   0.8800   0.9096   0.9614   1.0486   1.1410   1.2385   1.2644
     1.3135   1.3297   1.4382   1.4641   1.5117   1.5398   1.6446   1.7065
     1.8806   1.9329   1.9775   2.0642

     occupation numbers 
     1.0000   1.0000   1.0000   1.0000   1.0000   1.0000   1.0000   1.0000
     1.0000   1.0000   1.0000   1.0000   1.0000   1.0000   1.0000   1.0000
     1.0000   1.0000   1.0000   1.0000   1.0000   1.0000   1.0000   1.0000
     1.0000   1.0000   1.0000   1.0000   1.0000   1.0000   1.0000   1.0000
     1.0000   1.0000   1.0000   1.0000   1.0000   1.0000   1.0000   1.0000
     1.0000   1.0000   1.0000   1.0000   1.0000   1.0000   1.0000   1.0000
     1.0000   1.0000   1.0000   1.0000   1.0000   1.0000   1.0000   1.0000
     1.0000   1.0000   1.0000   1.0000   1.0000   1.0000   1.0000   1.0000
     1.0000   1.0000   1.0000   1.0000   1.0000   1.0000   1.0000   1.0000
     1.0000   1.0000   1.0000   1.0000

          k = 0.1250 0.2865 0.0589 ( 99823 PWs)   bands (ev):

   -41.8427 -41.8427 -41.8426 -41.8426 -41.7238 -41.7238 -41.7237 -41.7237
   -41.7231 -41.7231 -41.7230 -41.7230 -12.5227 -12.5040 -12.4904 -12.4875
    -9.6711  -9.6680  -9.6437  -9.6145  -9.5739  -9.5546  -9.5392  -9.5338
    -9.3411  -9.3273  -9.3149  -9.2902  -5.3688  -5.2520  -5.1960  -5.1821
    -2.5541  -2.4886  -2.4002  -2.3809  -2.3384  -2.2782  -2.2624  -2.2597
    -1.9700  -1.9205  -1.8747  -1.8592  -0.2581  -0.2091  -0.0763  -0.0529
     0.1145   0.2379   0.3141   0.4021   0.4526   0.5787   0.6561   0.6896
     0.7993   0.8190   0.9820   1.0203   1.0501   1.0720   1.1418   1.1453
     1.1687   1.2879   1.3774   1.4432   1.4502   1.5132   1.6064   1.6526
     1.8496   1.9114   1.9361   2.0377

     occupation numbers 
     1.0000   1.0000   1.0000   1.0000   1.0000   1.0000   1.0000   1.0000
     1.0000   1.0000   1.0000   1.0000   1.0000   1.0000   1.0000   1.0000
     1.0000   1.0000   1.0000   1.0000   1.0000   1.0000   1.0000   1.0000
     1.0000   1.0000   1.0000   1.0000   1.0000   1.0000   1.0000   1.0000
     1.0000   1.0000   1.0000   1.0000   1.0000   1.0000   1.0000   1.0000
     1.0000   1.0000   1.0000   1.0000   1.0000   1.0000   1.0000   1.0000
     1.0000   1.0000   1.0000   1.0000   1.0000   1.0000   1.0000   1.0000
     1.0000   1.0000   1.0000   1.0000   1.0000   1.0000   1.0000   1.0000
     1.0000   1.0000   1.0000   1.0000   1.0000   1.0000   1.0000   1.0000
     1.0000   1.0000   1.0000   1.0000

          k = 0.1250 0.2865 0.1767 ( 99818 PWs)   bands (ev):

   -41.8427 -41.8427 -41.8426 -41.8426 -41.7238 -41.7238 -41.7237 -41.7237
   -41.7231 -41.7231 -41.7230 -41.7230 -12.5177 -12.5101 -12.4891 -12.4878
    -9.6634  -9.6543  -9.6500  -9.6312  -9.5658  -9.5576  -9.5400  -9.5371
    -9.3374  -9.3312  -9.3076  -9.2970  -5.3405  -5.2952  -5.1821  -5.1793
    -2.5067  -2.4610  -2.4341  -2.4225  -2.3194  -2.2922  -2.2661  -2.2638
    -1.9632  -1.9448  -1.8707  -1.8655  -0.2280  -0.2090  -0.0764  -0.0649
     0.1477   0.2312   0.3559   0.4109   0.5018   0.5828   0.5968   0.6548
     0.8005   0.8360   0.9337   0.9598   1.0657   1.0907   1.1128   1.1534
     1.2148   1.2719   1.3613   1.4188   1.5043   1.5341   1.5656   1.6040
     1.8971   1.9203   1.9788   2.0214

     occupation numbers 
     1.0000   1.0000   1.0000   1.0000   1.0000   1.0000   1.0000   1.0000
     1.0000   1.0000   1.0000   1.0000   1.0000   1.0000   1.0000   1.0000
     1.0000   1.0000   1.0000   1.0000   1.0000   1.0000   1.0000   1.0000
     1.0000   1.0000   1.0000   1.0000   1.0000   1.0000   1.0000   1.0000
     1.0000   1.0000   1.0000   1.0000   1.0000   1.0000   1.0000   1.0000
     1.0000   1.0000   1.0000   1.0000   1.0000   1.0000   1.0000   1.0000
     1.0000   1.0000   1.0000   1.0000   1.0000   1.0000   1.0000   1.0000
     1.0000   1.0000   1.0000   1.0000   1.0000   1.0000   1.0000   1.0000
     1.0000   1.0000   1.0000   1.0000   1.0000   1.0000   1.0000   1.0000
     1.0000   1.0000   1.0000   1.0000

          k = 0.3750 0.0955 0.0589 ( 99755 PWs)   bands (ev):

   -41.8428 -41.8428 -41.8426 -41.8426 -41.7238 -41.7238 -41.7236 -41.7236
   -41.7232 -41.7232 -41.7230 -41.7230 -12.5071 -12.4929 -12.4579 -12.4556
    -9.6736  -9.6723  -9.6285  -9.6202  -9.6047  -9.5957  -9.5740  -9.5645
    -9.4173  -9.4014  -9.3442  -9.3253  -5.3083  -5.1901  -5.1226  -5.1020
    -2.4235  -2.4204  -2.4038  -2.2990  -2.1577  -2.1480  -2.0704  -2.0505
    -2.0123  -1.9373  -1.7872  -1.7190  -0.5623  -0.5559  -0.0594  -0.0058
     0.0449   0.1121   0.1844   0.2200   0.2857   0.3228   0.4667   0.5020
     0.6512   0.6779   0.8351   0.8841   1.0443   1.1192   1.1894   1.2269
     1.3007   1.4580   1.6167   1.6585   1.7519   1.7623   1.8260   1.8667
     1.9063   1.9601   1.9943   2.0975

     occupation numbers 
     1.0000   1.0000   1.0000   1.0000   1.0000   1.0000   1.0000   1.0000
     1.0000   1.0000   1.0000   1.0000   1.0000   1.0000   1.0000   1.0000
     1.0000   1.0000   1.0000   1.0000   1.0000   1.0000   1.0000   1.0000
     1.0000   1.0000   1.0000   1.0000   1.0000   1.0000   1.0000   1.0000
     1.0000   1.0000   1.0000   1.0000   1.0000   1.0000   1.0000   1.0000
     1.0000   1.0000   1.0000   1.0000   1.0000   1.0000   1.0000   1.0000
     1.0000   1.0000   1.0000   1.0000   1.0000   1.0000   1.0000   1.0000
     1.0000   1.0000   1.0000   1.0000   1.0000   1.0000   1.0000   1.0000
     1.0000   1.0000   1.0000   1.0000   1.0000   1.0000   1.0000   1.0000
     1.0000   1.0000   1.0000   1.0000

          k = 0.3750 0.0955 0.1767 ( 99733 PWs)   bands (ev):

   -41.8428 -41.8428 -41.8426 -41.8426 -41.7238 -41.7238 -41.7236 -41.7236
   -41.7232 -41.7232 -41.7230 -41.7230 -12.5029 -12.4970 -12.4574 -12.4563
    -9.6714  -9.6700  -9.6293  -9.6259  -9.6005  -9.5974  -9.5709  -9.5669
    -9.4107  -9.4030  -9.3425  -9.3337  -5.2790  -5.2326  -5.1081  -5.1013
    -2.4204  -2.4183  -2.3636  -2.3151  -2.1504  -2.1481  -2.0994  -2.0840
    -1.9927  -1.9638  -1.7606  -1.7339  -0.5615  -0.5586  -0.0648  -0.0472
     0.0873   0.1294   0.2207   0.2496   0.2759   0.3119   0.4751   0.4982
     0.6524   0.6644   0.8513   0.8755   1.0857   1.1453   1.1662   1.1848
     1.3470   1.4122   1.6256   1.6695   1.7365   1.7452   1.7976   1.8204
     1.9422   1.9726   2.0114   2.0624

     occupation numbers 
     1.0000   1.0000   1.0000   1.0000   1.0000   1.0000   1.0000   1.0000
     1.0000   1.0000   1.0000   1.0000   1.0000   1.0000   1.0000   1.0000
     1.0000   1.0000   1.0000   1.0000   1.0000   1.0000   1.0000   1.0000
     1.0000   1.0000   1.0000   1.0000   1.0000   1.0000   1.0000   1.0000
     1.0000   1.0000   1.0000   1.0000   1.0000   1.0000   1.0000   1.0000
     1.0000   1.0000   1.0000   1.0000   1.0000   1.0000   1.0000   1.0000
     1.0000   1.0000   1.0000   1.0000   1.0000   1.0000   1.0000   1.0000
     1.0000   1.0000   1.0000   1.0000   1.0000   1.0000   1.0000   1.0000
     1.0000   1.0000   1.0000   1.0000   1.0000   1.0000   1.0000   1.0000
     1.0000   1.0000   1.0000   1.0000

          k = 0.3750 0.2865 0.0589 ( 99795 PWs)   bands (ev):

   -41.8427 -41.8427 -41.8426 -41.8426 -41.7237 -41.7237 -41.7237 -41.7237
   -41.7231 -41.7231 -41.7231 -41.7231 -12.4920 -12.4830 -12.4689 -12.4666
    -9.6903  -9.6844  -9.6386  -9.6358  -9.6034  -9.6014  -9.5576  -9.5521
    -9.3955  -9.3882  -9.3512  -9.3407  -5.2367  -5.1602  -5.1375  -5.1176
    -2.4403  -2.4205  -2.3796  -2.2951  -2.1691  -2.1647  -2.0652  -2.0476
    -1.9296  -1.8941  -1.8184  -1.8006  -0.4108  -0.4004  -0.2001  -0.1808
     0.0053   0.0349   0.1437   0.1837   0.3350   0.3946   0.4751   0.5481
     0.6013   0.6757   0.7819   0.8166   0.9902   1.0225   1.0993   1.1081
     1.4049   1.5282   1.5300   1.5917   1.7415   1.7559   1.7963   1.8669
     1.9245   1.9701   2.0401   2.1332

     occupation numbers 
     1.0000   1.0000   1.0000   1.0000   1.0000   1.0000   1.0000   1.0000
     1.0000   1.0000   1.0000   1.0000   1.0000   1.0000   1.0000   1.0000
     1.0000   1.0000   1.0000   1.0000   1.0000   1.0000   1.0000   1.0000
     1.0000   1.0000   1.0000   1.0000   1.0000   1.0000   1.0000   1.0000
     1.0000   1.0000   1.0000   1.0000   1.0000   1.0000   1.0000   1.0000
     1.0000   1.0000   1.0000   1.0000   1.0000   1.0000   1.0000   1.0000
     1.0000   1.0000   1.0000   1.0000   1.0000   1.0000   1.0000   1.0000
     1.0000   1.0000   1.0000   1.0000   1.0000   1.0000   1.0000   1.0000
     1.0000   1.0000   1.0000   1.0000   1.0000   1.0000   1.0000   1.0000
     1.0000   1.0000   1.0000   1.0000

          k = 0.3750 0.2865 0.1767 ( 99768 PWs)   bands (ev):

   -41.8427 -41.8427 -41.8426 -41.8426 -41.7237 -41.7237 -41.7237 -41.7237
   -41.7231 -41.7231 -41.7231 -41.7231 -12.4887 -12.4847 -12.4692 -12.4679
    -9.6816  -9.6774  -9.6552  -9.6533  -9.5876  -9.5857  -9.5627  -9.5589
    -9.3878  -9.3826  -9.3567  -9.3502  -5.2123  -5.1767  -5.1382  -5.1234
    -2.4207  -2.3957  -2.3834  -2.3315  -2.1450  -2.1400  -2.0980  -2.0848
    -1.9202  -1.9059  -1.8111  -1.8043  -0.4091  -0.4029  -0.1844  -0.1739
     0.0038   0.0150   0.1415   0.1578   0.3590   0.3869   0.5167   0.5338
     0.6467   0.7222   0.7828   0.8119   0.9682   1.0156   1.0529   1.0769
     1.4446   1.4965   1.5470   1.5721   1.7483   1.7590   1.8106   1.8368
     1.9608   1.9988   2.0387   2.0965

     occupation numbers 
     1.0000   1.0000   1.0000   1.0000   1.0000   1.0000   1.0000   1.0000
     1.0000   1.0000   1.0000   1.0000   1.0000   1.0000   1.0000   1.0000
     1.0000   1.0000   1.0000   1.0000   1.0000   1.0000   1.0000   1.0000
     1.0000   1.0000   1.0000   1.0000   1.0000   1.0000   1.0000   1.0000
     1.0000   1.0000   1.0000   1.0000   1.0000   1.0000   1.0000   1.0000
     1.0000   1.0000   1.0000   1.0000   1.0000   1.0000   1.0000   1.0000
     1.0000   1.0000   1.0000   1.0000   1.0000   1.0000   1.0000   1.0000
     1.0000   1.0000   1.0000   1.0000   1.0000   1.0000   1.0000   1.0000
     1.0000   1.0000   1.0000   1.0000   1.0000   1.0000   1.0000   1.0000
     1.0000   1.0000   1.0000   1.0000

          k = 0.1250-0.0955-0.0589 ( 99800 PWs)   bands (ev):

   -41.8428 -41.8428 -41.8426 -41.8426 -41.7239 -41.7239 -41.7235 -41.7235
   -41.7233 -41.7233 -41.7229 -41.7229 -12.5457 -12.5162 -12.4769 -12.4680
    -9.6569  -9.6485  -9.6439  -9.6004  -9.5789  -9.5659  -9.5336  -9.5246
    -9.3696  -9.3580  -9.3067  -9.2714  -5.5067  -5.3058  -5.1705  -5.0568
    -2.5648  -2.4083  -2.3978  -2.3591  -2.3343  -2.2710  -2.2382  -2.1580
    -2.1361  -2.0283  -1.8812  -1.8379  -0.4001  -0.3380  -0.0207   0.0728
     0.1683   0.2274   0.2562   0.3283   0.4646   0.4967   0.6363   0.6995
     0.7778   0.8073   0.8825   1.0329   1.1110   1.1812   1.2132   1.2904
     1.2953   1.3389   1.4442   1.4600   1.5339   1.5593   1.6077   1.7154
     1.8370   1.9114   2.0185   2.1405

     occupation numbers 
     1.0000   1.0000   1.0000   1.0000   1.0000   1.0000   1.0000   1.0000
     1.0000   1.0000   1.0000   1.0000   1.0000   1.0000   1.0000   1.0000
     1.0000   1.0000   1.0000   1.0000   1.0000   1.0000   1.0000   1.0000
     1.0000   1.0000   1.0000   1.0000   1.0000   1.0000   1.0000   1.0000
     1.0000   1.0000   1.0000   1.0000   1.0000   1.0000   1.0000   1.0000
     1.0000   1.0000   1.0000   1.0000   1.0000   1.0000   1.0000   1.0000
     1.0000   1.0000   1.0000   1.0000   1.0000   1.0000   1.0000   1.0000
     1.0000   1.0000   1.0000   1.0000   1.0000   1.0000   1.0000   1.0000
     1.0000   1.0000   1.0000   1.0000   1.0000   1.0000   1.0000   1.0000
     1.0000   1.0000   1.0000   1.0000

          k = 0.1250-0.0955-0.1767 ( 99857 PWs)   bands (ev):

   -41.8428 -41.8428 -41.8426 -41.8426 -41.7239 -41.7239 -41.7235 -41.7235
   -41.7233 -41.7233 -41.7229 -41.7229 -12.5382 -12.5264 -12.4727 -12.4694
    -9.6539  -9.6498  -9.6321  -9.6137  -9.5742  -9.5692  -9.5311  -9.5273
    -9.3691  -9.3641  -9.2944  -9.2800  -5.4624  -5.3866  -5.1142  -5.0745
    -2.5112  -2.4395  -2.3930  -2.3834  -2.3115  -2.2875  -2.2148  -2.1807
    -2.1170  -2.0799  -1.8692  -1.8526  -0.3773  -0.3500  -0.0169   0.0228
     0.1650   0.1954   0.3074   0.3567   0.4720   0.5094   0.7028   0.7294
     0.7808   0.8801   0.9096   0.9614   1.0486   1.1410   1.2385   1.2644
     1.3135   1.3297   1.4382   1.4641   1.5117   1.5398   1.6446   1.7065
     1.8806   1.9329   1.9775   2.0642

     occupation numbers 
     1.0000   1.0000   1.0000   1.0000   1.0000   1.0000   1.0000   1.0000
     1.0000   1.0000   1.0000   1.0000   1.0000   1.0000   1.0000   1.0000
     1.0000   1.0000   1.0000   1.0000   1.0000   1.0000   1.0000   1.0000
     1.0000   1.0000   1.0000   1.0000   1.0000   1.0000   1.0000   1.0000
     1.0000   1.0000   1.0000   1.0000   1.0000   1.0000   1.0000   1.0000
     1.0000   1.0000   1.0000   1.0000   1.0000   1.0000   1.0000   1.0000
     1.0000   1.0000   1.0000   1.0000   1.0000   1.0000   1.0000   1.0000
     1.0000   1.0000   1.0000   1.0000   1.0000   1.0000   1.0000   1.0000
     1.0000   1.0000   1.0000   1.0000   1.0000   1.0000   1.0000   1.0000
     1.0000   1.0000   1.0000   1.0000

          k = 0.1250-0.2865-0.0589 ( 99823 PWs)   bands (ev):

   -41.8427 -41.8427 -41.8426 -41.8426 -41.7238 -41.7238 -41.7237 -41.7237
   -41.7231 -41.7231 -41.7230 -41.7230 -12.5227 -12.5040 -12.4904 -12.4875
    -9.6711  -9.6680  -9.6437  -9.6145  -9.5739  -9.5546  -9.5392  -9.5338
    -9.3411  -9.3273  -9.3149  -9.2902  -5.3688  -5.2520  -5.1960  -5.1821
    -2.5541  -2.4886  -2.4002  -2.3809  -2.3384  -2.2782  -2.2624  -2.2597
    -1.9700  -1.9205  -1.8747  -1.8592  -0.2581  -0.2091  -0.0763  -0.0529
     0.1145   0.2379   0.3141   0.4021   0.4526   0.5787   0.6561   0.6896
     0.7993   0.8190   0.9820   1.0203   1.0501   1.0720   1.1418   1.1453
     1.1687   1.2879   1.3774   1.4432   1.4502   1.5132   1.6064   1.6526
     1.8496   1.9114   1.9361   2.0377

     occupation numbers 
     1.0000   1.0000   1.0000   1.0000   1.0000   1.0000   1.0000   1.0000
     1.0000   1.0000   1.0000   1.0000   1.0000   1.0000   1.0000   1.0000
     1.0000   1.0000   1.0000   1.0000   1.0000   1.0000   1.0000   1.0000
     1.0000   1.0000   1.0000   1.0000   1.0000   1.0000   1.0000   1.0000
     1.0000   1.0000   1.0000   1.0000   1.0000   1.0000   1.0000   1.0000
     1.0000   1.0000   1.0000   1.0000   1.0000   1.0000   1.0000   1.0000
     1.0000   1.0000   1.0000   1.0000   1.0000   1.0000   1.0000   1.0000
     1.0000   1.0000   1.0000   1.0000   1.0000   1.0000   1.0000   1.0000
     1.0000   1.0000   1.0000   1.0000   1.0000   1.0000   1.0000   1.0000
     1.0000   1.0000   1.0000   1.0000

          k = 0.1250-0.2865-0.1767 ( 99818 PWs)   bands (ev):

   -41.8427 -41.8427 -41.8426 -41.8426 -41.7238 -41.7238 -41.7237 -41.7237
   -41.7231 -41.7231 -41.7230 -41.7230 -12.5177 -12.5101 -12.4891 -12.4878
    -9.6634  -9.6543  -9.6500  -9.6312  -9.5658  -9.5576  -9.5400  -9.5371
    -9.3374  -9.3312  -9.3076  -9.2970  -5.3405  -5.2952  -5.1821  -5.1793
    -2.5067  -2.4610  -2.4341  -2.4225  -2.3194  -2.2922  -2.2661  -2.2638
    -1.9632  -1.9448  -1.8707  -1.8655  -0.2280  -0.2090  -0.0764  -0.0649
     0.1477   0.2312   0.3559   0.4109   0.5018   0.5828   0.5968   0.6548
     0.8005   0.8360   0.9337   0.9598   1.0657   1.0907   1.1128   1.1534
     1.2148   1.2719   1.3613   1.4188   1.5043   1.5341   1.5656   1.6040
     1.8971   1.9203   1.9788   2.0214

     occupation numbers 
     1.0000   1.0000   1.0000   1.0000   1.0000   1.0000   1.0000   1.0000
     1.0000   1.0000   1.0000   1.0000   1.0000   1.0000   1.0000   1.0000
     1.0000   1.0000   1.0000   1.0000   1.0000   1.0000   1.0000   1.0000
     1.0000   1.0000   1.0000   1.0000   1.0000   1.0000   1.0000   1.0000
     1.0000   1.0000   1.0000   1.0000   1.0000   1.0000   1.0000   1.0000
     1.0000   1.0000   1.0000   1.0000   1.0000   1.0000   1.0000   1.0000
     1.0000   1.0000   1.0000   1.0000   1.0000   1.0000   1.0000   1.0000
     1.0000   1.0000   1.0000   1.0000   1.0000   1.0000   1.0000   1.0000
     1.0000   1.0000   1.0000   1.0000   1.0000   1.0000   1.0000   1.0000
     1.0000   1.0000   1.0000   1.0000

          k = 0.3750-0.0955-0.0589 ( 99755 PWs)   bands (ev):

   -41.8428 -41.8428 -41.8426 -41.8426 -41.7238 -41.7238 -41.7236 -41.7236
   -41.7232 -41.7232 -41.7230 -41.7230 -12.5071 -12.4929 -12.4579 -12.4556
    -9.6736  -9.6723  -9.6285  -9.6202  -9.6047  -9.5957  -9.5740  -9.5645
    -9.4173  -9.4014  -9.3442  -9.3253  -5.3083  -5.1901  -5.1226  -5.1020
    -2.4235  -2.4204  -2.4038  -2.2990  -2.1577  -2.1480  -2.0704  -2.0505
    -2.0123  -1.9373  -1.7872  -1.7190  -0.5623  -0.5559  -0.0594  -0.0058
     0.0449   0.1121   0.1844   0.2200   0.2857   0.3228   0.4667   0.5020
     0.6512   0.6779   0.8351   0.8841   1.0443   1.1192   1.1894   1.2269
     1.3007   1.4580   1.6167   1.6585   1.7519   1.7623   1.8260   1.8667
     1.9063   1.9601   1.9943   2.0975

     occupation numbers 
     1.0000   1.0000   1.0000   1.0000   1.0000   1.0000   1.0000   1.0000
     1.0000   1.0000   1.0000   1.0000   1.0000   1.0000   1.0000   1.0000
     1.0000   1.0000   1.0000   1.0000   1.0000   1.0000   1.0000   1.0000
     1.0000   1.0000   1.0000   1.0000   1.0000   1.0000   1.0000   1.0000
     1.0000   1.0000   1.0000   1.0000   1.0000   1.0000   1.0000   1.0000
     1.0000   1.0000   1.0000   1.0000   1.0000   1.0000   1.0000   1.0000
     1.0000   1.0000   1.0000   1.0000   1.0000   1.0000   1.0000   1.0000
     1.0000   1.0000   1.0000   1.0000   1.0000   1.0000   1.0000   1.0000
     1.0000   1.0000   1.0000   1.0000   1.0000   1.0000   1.0000   1.0000
     1.0000   1.0000   1.0000   1.0000

          k = 0.3750-0.0955-0.1767 ( 99733 PWs)   bands (ev):

   -41.8428 -41.8428 -41.8426 -41.8426 -41.7238 -41.7238 -41.7236 -41.7236
   -41.7232 -41.7232 -41.7230 -41.7230 -12.5029 -12.4970 -12.4574 -12.4563
    -9.6714  -9.6700  -9.6293  -9.6259  -9.6005  -9.5974  -9.5709  -9.5669
    -9.4107  -9.4030  -9.3425  -9.3337  -5.2790  -5.2326  -5.1081  -5.1013
    -2.4204  -2.4183  -2.3636  -2.3151  -2.1504  -2.1481  -2.0994  -2.0840
    -1.9927  -1.9638  -1.7606  -1.7339  -0.5615  -0.5586  -0.0648  -0.0472
     0.0873   0.1294   0.2207   0.2496   0.2759   0.3119   0.4751   0.4982
     0.6524   0.6644   0.8513   0.8755   1.0857   1.1453   1.1662   1.1848
     1.3470   1.4122   1.6256   1.6695   1.7365   1.7452   1.7976   1.8204
     1.9422   1.9726   2.0114   2.0624

     occupation numbers 
     1.0000   1.0000   1.0000   1.0000   1.0000   1.0000   1.0000   1.0000
     1.0000   1.0000   1.0000   1.0000   1.0000   1.0000   1.0000   1.0000
     1.0000   1.0000   1.0000   1.0000   1.0000   1.0000   1.0000   1.0000
     1.0000   1.0000   1.0000   1.0000   1.0000   1.0000   1.0000   1.0000
     1.0000   1.0000   1.0000   1.0000   1.0000   1.0000   1.0000   1.0000
     1.0000   1.0000   1.0000   1.0000   1.0000   1.0000   1.0000   1.0000
     1.0000   1.0000   1.0000   1.0000   1.0000   1.0000   1.0000   1.0000
     1.0000   1.0000   1.0000   1.0000   1.0000   1.0000   1.0000   1.0000
     1.0000   1.0000   1.0000   1.0000   1.0000   1.0000   1.0000   1.0000
     1.0000   1.0000   1.0000   1.0000

          k = 0.3750-0.2865-0.0589 ( 99795 PWs)   bands (ev):

   -41.8427 -41.8427 -41.8426 -41.8426 -41.7237 -41.7237 -41.7237 -41.7237
   -41.7231 -41.7231 -41.7231 -41.7231 -12.4920 -12.4830 -12.4689 -12.4666
    -9.6903  -9.6844  -9.6386  -9.6358  -9.6034  -9.6014  -9.5576  -9.5521
    -9.3955  -9.3882  -9.3512  -9.3407  -5.2367  -5.1602  -5.1375  -5.1176
    -2.4403  -2.4205  -2.3796  -2.2951  -2.1691  -2.1647  -2.0652  -2.0476
    -1.9296  -1.8941  -1.8184  -1.8006  -0.4108  -0.4004  -0.2001  -0.1808
     0.0053   0.0349   0.1437   0.1837   0.3350   0.3946   0.4751   0.5481
     0.6013   0.6757   0.7819   0.8166   0.9902   1.0225   1.0993   1.1081
     1.4049   1.5282   1.5300   1.5917   1.7415   1.7559   1.7963   1.8669
     1.9245   1.9701   2.0401   2.1332

     occupation numbers 
     1.0000   1.0000   1.0000   1.0000   1.0000   1.0000   1.0000   1.0000
     1.0000   1.0000   1.0000   1.0000   1.0000   1.0000   1.0000   1.0000
     1.0000   1.0000   1.0000   1.0000   1.0000   1.0000   1.0000   1.0000
     1.0000   1.0000   1.0000   1.0000   1.0000   1.0000   1.0000   1.0000
     1.0000   1.0000   1.0000   1.0000   1.0000   1.0000   1.0000   1.0000
     1.0000   1.0000   1.0000   1.0000   1.0000   1.0000   1.0000   1.0000
     1.0000   1.0000   1.0000   1.0000   1.0000   1.0000   1.0000   1.0000
     1.0000   1.0000   1.0000   1.0000   1.0000   1.0000   1.0000   1.0000
     1.0000   1.0000   1.0000   1.0000   1.0000   1.0000   1.0000   1.0000
     1.0000   1.0000   1.0000   1.0000

          k = 0.3750-0.2865-0.1767 ( 99768 PWs)   bands (ev):

   -41.8427 -41.8427 -41.8426 -41.8426 -41.7237 -41.7237 -41.7237 -41.7237
   -41.7231 -41.7231 -41.7231 -41.7231 -12.4887 -12.4847 -12.4692 -12.4679
    -9.6816  -9.6774  -9.6552  -9.6533  -9.5876  -9.5857  -9.5627  -9.5589
    -9.3878  -9.3826  -9.3567  -9.3502  -5.2123  -5.1767  -5.1382  -5.1234
    -2.4207  -2.3957  -2.3834  -2.3315  -2.1450  -2.1400  -2.0980  -2.0848
    -1.9202  -1.9059  -1.8111  -1.8043  -0.4091  -0.4029  -0.1844  -0.1739
     0.0038   0.0150   0.1415   0.1578   0.3590   0.3869   0.5167   0.5338
     0.6467   0.7222   0.7828   0.8119   0.9682   1.0156   1.0529   1.0769
     1.4446   1.4965   1.5470   1.5721   1.7483   1.7590   1.8106   1.8368
     1.9608   1.9988   2.0387   2.0965

     occupation numbers 
     1.0000   1.0000   1.0000   1.0000   1.0000   1.0000   1.0000   1.0000
     1.0000   1.0000   1.0000   1.0000   1.0000   1.0000   1.0000   1.0000
     1.0000   1.0000   1.0000   1.0000   1.0000   1.0000   1.0000   1.0000
     1.0000   1.0000   1.0000   1.0000   1.0000   1.0000   1.0000   1.0000
     1.0000   1.0000   1.0000   1.0000   1.0000   1.0000   1.0000   1.0000
     1.0000   1.0000   1.0000   1.0000   1.0000   1.0000   1.0000   1.0000
     1.0000   1.0000   1.0000   1.0000   1.0000   1.0000   1.0000   1.0000
     1.0000   1.0000   1.0000   1.0000   1.0000   1.0000   1.0000   1.0000
     1.0000   1.0000   1.0000   1.0000   1.0000   1.0000   1.0000   1.0000
     1.0000   1.0000   1.0000   1.0000

     highest occupied level (ev):     2.1405

!    total energy              =    -569.92476390 Ry
     estimated scf accuracy    <          2.8E-12 Ry

     The total energy is the sum of the following terms:
     one-electron contribution =    -191.47242701 Ry
     hartree contribution      =     129.88143367 Ry
     xc contribution           =    -140.98456848 Ry
     ewald contribution        =    -367.34920207 Ry

     convergence has been achieved in  16 iterations

     Forces acting on atoms (cartesian axes, Ry/au):

     atom    1 type  1   force =     0.00008850    0.00015930   -0.00081737
     atom    2 type  1   force =    -0.00008813   -0.00015915    0.00081712
     atom    3 type  1   force =     0.00009012   -0.00015930    0.00081708
     atom    4 type  1   force =    -0.00009047    0.00015944   -0.00081717
     atom    5 type  1   force =    -0.00008813    0.00015915    0.00081712
     atom    6 type  1   force =     0.00008850   -0.00015930   -0.00081737
     atom    7 type  1   force =    -0.00009047   -0.00015944   -0.00081717
     atom    8 type  1   force =     0.00009012    0.00015930    0.00081708
     atom    9 type  1   force =    -0.00000004    0.00000005    0.00000024
     atom   10 type  1   force =     0.00000002    0.00000004    0.00000003
     atom   11 type  1   force =    -0.00000004   -0.00000005    0.00000024
     atom   12 type  1   force =     0.00000002   -0.00000004    0.00000003
     atom   13 type  2   force =    -0.00092931    0.00000000    0.00321025
     atom   14 type  2   force =     0.00092928    0.00000000   -0.00321009
     atom   15 type  2   force =    -0.00092935    0.00000000   -0.00321022
     atom   16 type  2   force =     0.00092939    0.00000000    0.00321024
     atom   17 type  3   force =     0.00210195    0.00000000   -0.00024343
     atom   18 type  3   force =    -0.00210187    0.00000000    0.00024338
     atom   19 type  3   force =     0.00210204    0.00000000    0.00024348
     atom   20 type  3   force =    -0.00210186    0.00000000   -0.00024334
     atom   21 type  3   force =    -0.00071594    0.00000000   -0.00267023
     atom   22 type  3   force =     0.00071595    0.00000000    0.00267006
     atom   23 type  3   force =    -0.00071606    0.00000000    0.00267042
     atom   24 type  3   force =     0.00071600    0.00000000   -0.00267012
     atom   25 type  3   force =    -0.00093849   -0.00026259   -0.00117053
     atom   26 type  3   force =     0.00093850    0.00026251    0.00117042
     atom   27 type  3   force =    -0.00093886    0.00026246    0.00117052
     atom   28 type  3   force =     0.00093875   -0.00026272   -0.00117054
     atom   29 type  3   force =     0.00093850   -0.00026251    0.00117042
     atom   30 type  3   force =    -0.00093849    0.00026259   -0.00117053
     atom   31 type  3   force =     0.00093875    0.00026272   -0.00117054
     atom   32 type  3   force =    -0.00093886   -0.00026246    0.00117052
     The non-local contrib.  to forces
     atom    1 type  1   force =    -0.00915133    0.01710399    0.00575231
     atom    2 type  1   force =     0.00915159   -0.01710390   -0.00575256
     atom    3 type  1   force =    -0.00914963   -0.01710401   -0.00575263
     atom    4 type  1   force =     0.00914941    0.01710410    0.00575245
     atom    5 type  1   force =     0.00915159    0.01710390   -0.00575256
     atom    6 type  1   force =    -0.00915133   -0.01710399    0.00575231
     atom    7 type  1   force =     0.00914941   -0.01710410    0.00575245
     atom    8 type  1   force =    -0.00914963    0.01710401   -0.00575263
     atom    9 type  1   force =    -0.00000009    0.00000003    0.00000012
     atom   10 type  1   force =     0.00000006    0.00000002    0.00000003
     atom   11 type  1   force =    -0.00000009   -0.00000003    0.00000012
     atom   12 type  1   force =     0.00000006   -0.00000002    0.00000003
     atom   13 type  2   force =     0.03856565    0.00000000    0.04590414
     atom   14 type  2   force =    -0.03856555    0.00000000   -0.04590476
     atom   15 type  2   force =     0.03856553    0.00000000   -0.04590420
     atom   16 type  2   force =    -0.03856567    0.00000000    0.04590446
     atom   17 type  3   force =     0.04805983    0.00000000    0.03140399
     atom   18 type  3   force =    -0.04805994    0.00000000   -0.03140408
     atom   19 type  3   force =     0.04805970    0.00000000   -0.03140390
     atom   20 type  3   force =    -0.04806006    0.00000000    0.03140399
     atom   21 type  3   force =    -0.08288091    0.00000000   -0.06247812
     atom   22 type  3   force =     0.08288087    0.00000000    0.06247817
     atom   23 type  3   force =    -0.08288080    0.00000000    0.06247790
     atom   24 type  3   force =     0.08288078    0.00000000   -0.06247805
     atom   25 type  3   force =    -0.01750650    0.07513980   -0.01485366
     atom   26 type  3   force =     0.01750654   -0.07513981    0.01485351
     atom   27 type  3   force =    -0.01750690   -0.07513942    0.01485387
     atom   28 type  3   force =     0.01750707    0.07513974   -0.01485377
     atom   29 type  3   force =     0.01750654    0.07513981    0.01485351
     atom   30 type  3   force =    -0.01750650   -0.07513980   -0.01485366
     atom   31 type  3   force =     0.01750707   -0.07513974   -0.01485377
     atom   32 type  3   force =    -0.01750690    0.07513942    0.01485387
     The ionic contribution  to forces
     atom    1 type  1   force =    -0.18742888    0.62663315    0.49959269
     atom    2 type  1   force =     0.18742889   -0.62663315   -0.49959268
     atom    3 type  1   force =    -0.18742889   -0.62663315   -0.49959269
     atom    4 type  1   force =     0.18742889    0.62663315    0.49959269
     atom    5 type  1   force =     0.18742889    0.62663315   -0.49959268
     atom    6 type  1   force =    -0.18742888   -0.62663315    0.49959269
     atom    7 type  1   force =     0.18742889   -0.62663315    0.49959269
     atom    8 type  1   force =    -0.18742889    0.62663315   -0.49959269
     atom    9 type  1   force =    -0.00000000    0.00000000   -0.00000000
     atom   10 type  1   force =     0.00000000    0.00000000   -0.00000000
     atom   11 type  1   force =    -0.00000000   -0.00000000   -0.00000000
     atom   12 type  1   force =     0.00000000   -0.00000000   -0.00000000
     atom   13 type  2   force =    -0.16619422   -0.00000000   -0.24937693
     atom   14 type  2   force =     0.16619423    0.00000000    0.24937693
     atom   15 type  2   force =    -0.16619423    0.00000000    0.24937693
     atom   16 type  2   force =     0.16619423    0.00000000   -0.24937693
     atom   17 type  3   force =    -3.73674614   -0.00000000   -0.32637802
     atom   18 type  3   force =     3.73674614    0.00000000    0.32637802
     atom   19 type  3   force =    -3.73674614    0.00000000    0.32637802
     atom   20 type  3   force =     3.73674614   -0.00000000   -0.32637802
     atom   21 type  3   force =     1.15541965   -0.00000000    3.53898051
     atom   22 type  3   force =    -1.15541965    0.00000000   -3.53898051
     atom   23 type  3   force =     1.15541965    0.00000000   -3.53898051
     atom   24 type  3   force =    -1.15541965    0.00000000    3.53898051
     atom   25 type  3   force =     1.42594212   -3.34058427   -1.94787515
     atom   26 type  3   force =    -1.42594212    3.34058427    1.94787515
     atom   27 type  3   force =     1.42594212    3.34058427    1.94787515
     atom   28 type  3   force =    -1.42594212   -3.34058427   -1.94787515
     atom   29 type  3   force =    -1.42594212   -3.34058427    1.94787515
     atom   30 type  3   force =     1.42594212    3.34058427   -1.94787515
     atom   31 type  3   force =    -1.42594212    3.34058427   -1.94787515
     atom   32 type  3   force =     1.42594212   -3.34058427    1.94787515
     The local contribution  to forces
     atom    1 type  1   force =     0.19666876   -0.64357802   -0.50616205
     atom    2 type  1   force =    -0.19666860    0.64357788    0.50616228
     atom    3 type  1   force =     0.19666856    0.64357777    0.50616212
     atom    4 type  1   force =    -0.19666874   -0.64357801   -0.50616224
     atom    5 type  1   force =    -0.19666860   -0.64357788    0.50616228
     atom    6 type  1   force =     0.19666876    0.64357802   -0.50616205
     atom    7 type  1   force =    -0.19666874    0.64357801   -0.50616224
     atom    8 type  1   force =     0.19666856   -0.64357777    0.50616212
     atom    9 type  1   force =     0.00000005   -0.00000009   -0.00000016
     atom   10 type  1   force =    -0.00000008   -0.00000007    0.00000018
     atom   11 type  1   force =     0.00000005    0.00000009   -0.00000016
     atom   12 type  1   force =    -0.00000008    0.00000007    0.00000018
     atom   13 type  2   force =     0.12805801    0.00000000    0.20873305
     atom   14 type  2   force =    -0.12805807    0.00000000   -0.20873330
     atom   15 type  2   force =     0.12805810   -0.00000000   -0.20873287
     atom   16 type  2   force =    -0.12805798    0.00000000    0.20873373
     atom   17 type  3   force =     3.68581240   -0.00000000    0.29523840
     atom   18 type  3   force =    -3.68581219    0.00000000   -0.29523939
     atom   19 type  3   force =     3.68581306    0.00000000   -0.29523837
     atom   20 type  3   force =    -3.68581141   -0.00000000    0.29523947
     atom   21 type  3   force =    -1.07282985   -0.00000000   -3.47620147
     atom   22 type  3   force =     1.07282997    0.00000000    3.47619984
     atom   23 type  3   force =    -1.07283023    0.00000000    3.47620219
     atom   24 type  3   force =     1.07283008   -0.00000000   -3.47619977
     atom   25 type  3   force =    -1.40759114    3.26201952    1.95935266
     atom   26 type  3   force =     1.40759120   -3.26202009   -1.95935347
     atom   27 type  3   force =    -1.40759141   -3.26202081   -1.95935290
     atom   28 type  3   force =     1.40759052    3.26201889    1.95935315
     atom   29 type  3   force =     1.40759120    3.26202009   -1.95935347
     atom   30 type  3   force =    -1.40759114   -3.26201952    1.95935266
     atom   31 type  3   force =     1.40759052   -3.26201889    1.95935315
     atom   32 type  3   force =    -1.40759141    3.26202081   -1.95935290
     The core correction contribution to forces
     atom    1 type  1   force =     0.00000000    0.00000000    0.00000000
     atom    2 type  1   force =     0.00000000    0.00000000    0.00000000
     atom    3 type  1   force =     0.00000000    0.00000000    0.00000000
     atom    4 type  1   force =     0.00000000    0.00000000    0.00000000
     atom    5 type  1   force =     0.00000000    0.00000000    0.00000000
     atom    6 type  1   force =     0.00000000    0.00000000    0.00000000
     atom    7 type  1   force =     0.00000000    0.00000000    0.00000000
     atom    8 type  1   force =     0.00000000    0.00000000    0.00000000
     atom    9 type  1   force =     0.00000000    0.00000000    0.00000000
     atom   10 type  1   force =     0.00000000    0.00000000    0.00000000
     atom   11 type  1   force =     0.00000000    0.00000000    0.00000000
     atom   12 type  1   force =     0.00000000    0.00000000    0.00000000
     atom   13 type  2   force =    -0.00135893   -0.00000000   -0.00205114
     atom   14 type  2   force =     0.00135893   -0.00000000    0.00205116
     atom   15 type  2   force =    -0.00135892   -0.00000000    0.00205114
     atom   16 type  2   force =     0.00135893   -0.00000000   -0.00205115
     atom   17 type  3   force =     0.00497603    0.00000000   -0.00050908
     atom   18 type  3   force =    -0.00497602   -0.00000000    0.00050907
     atom   19 type  3   force =     0.00497603   -0.00000000    0.00050907
     atom   20 type  3   force =    -0.00497602   -0.00000000   -0.00050907
     atom   21 type  3   force =    -0.00042477    0.00000000   -0.00297124
     atom   22 type  3   force =     0.00042477    0.00000000    0.00297123
     atom   23 type  3   force =    -0.00042477    0.00000000    0.00297125
     atom   24 type  3   force =     0.00042477    0.00000000   -0.00297124
     atom   25 type  3   force =    -0.00178311    0.00316240    0.00220457
     atom   26 type  3   force =     0.00178311   -0.00316240   -0.00220457
     atom   27 type  3   force =    -0.00178310   -0.00316241   -0.00220457
     atom   28 type  3   force =     0.00178310    0.00316239    0.00220457
     atom   29 type  3   force =     0.00178311    0.00316240   -0.00220457
     atom   30 type  3   force =    -0.00178311   -0.00316240    0.00220457
     atom   31 type  3   force =     0.00178310   -0.00316239    0.00220457
     atom   32 type  3   force =    -0.00178310    0.00316241   -0.00220457
     The Hubbard contrib.    to forces
     atom    1 type  1   force =     0.00000000    0.00000000    0.00000000
     atom    2 type  1   force =     0.00000000    0.00000000    0.00000000
     atom    3 type  1   force =     0.00000000    0.00000000    0.00000000
     atom    4 type  1   force =     0.00000000    0.00000000    0.00000000
     atom    5 type  1   force =     0.00000000    0.00000000    0.00000000
     atom    6 type  1   force =     0.00000000    0.00000000    0.00000000
     atom    7 type  1   force =     0.00000000    0.00000000    0.00000000
     atom    8 type  1   force =     0.00000000    0.00000000    0.00000000
     atom    9 type  1   force =     0.00000000    0.00000000    0.00000000
     atom   10 type  1   force =     0.00000000    0.00000000    0.00000000
     atom   11 type  1   force =     0.00000000    0.00000000    0.00000000
     atom   12 type  1   force =     0.00000000    0.00000000    0.00000000
     atom   13 type  2   force =     0.00000000    0.00000000    0.00000000
     atom   14 type  2   force =     0.00000000    0.00000000    0.00000000
     atom   15 type  2   force =     0.00000000    0.00000000    0.00000000
     atom   16 type  2   force =     0.00000000    0.00000000    0.00000000
     atom   17 type  3   force =     0.00000000    0.00000000    0.00000000
     atom   18 type  3   force =     0.00000000    0.00000000    0.00000000
     atom   19 type  3   force =     0.00000000    0.00000000    0.00000000
     atom   20 type  3   force =     0.00000000    0.00000000    0.00000000
     atom   21 type  3   force =     0.00000000    0.00000000    0.00000000
     atom   22 type  3   force =     0.00000000    0.00000000    0.00000000
     atom   23 type  3   force =     0.00000000    0.00000000    0.00000000
     atom   24 type  3   force =     0.00000000    0.00000000    0.00000000
     atom   25 type  3   force =     0.00000000    0.00000000    0.00000000
     atom   26 type  3   force =     0.00000000    0.00000000    0.00000000
     atom   27 type  3   force =     0.00000000    0.00000000    0.00000000
     atom   28 type  3   force =     0.00000000    0.00000000    0.00000000
     atom   29 type  3   force =     0.00000000    0.00000000    0.00000000
     atom   30 type  3   force =     0.00000000    0.00000000    0.00000000
     atom   31 type  3   force =     0.00000000    0.00000000    0.00000000
     atom   32 type  3   force =     0.00000000    0.00000000    0.00000000
     The SCF correction term to forces
     atom    1 type  1   force =    -0.00000004    0.00000017   -0.00000033
     atom    2 type  1   force =    -0.00000000    0.00000002    0.00000007
     atom    3 type  1   force =     0.00000007    0.00000010    0.00000026
     atom    4 type  1   force =    -0.00000003    0.00000019   -0.00000008
     atom    5 type  1   force =    -0.00000000   -0.00000002    0.00000007
     atom    6 type  1   force =    -0.00000004   -0.00000017   -0.00000033
     atom    7 type  1   force =    -0.00000003   -0.00000019   -0.00000008
     atom    8 type  1   force =     0.00000007   -0.00000010    0.00000026
     atom    9 type  1   force =     0.00000001    0.00000011    0.00000026
     atom   10 type  1   force =     0.00000004    0.00000009   -0.00000020
     atom   11 type  1   force =     0.00000001   -0.00000011    0.00000026
     atom   12 type  1   force =     0.00000004   -0.00000009   -0.00000020
     atom   13 type  2   force =     0.00000020   -0.00000000    0.00000110
     atom   14 type  2   force =    -0.00000026   -0.00000000   -0.00000015
     atom   15 type  2   force =     0.00000018    0.00000000   -0.00000124
     atom   16 type  2   force =    -0.00000011   -0.00000000    0.00000011
     atom   17 type  3   force =    -0.00000016    0.00000000    0.00000125
     atom   18 type  3   force =     0.00000014   -0.00000000   -0.00000026
     atom   19 type  3   force =    -0.00000061    0.00000000   -0.00000136
     atom   20 type  3   force =    -0.00000052    0.00000000    0.00000027
     atom   21 type  3   force =    -0.00000008   -0.00000000    0.00000007
     atom   22 type  3   force =    -0.00000001   -0.00000000    0.00000131
     atom   23 type  3   force =     0.00000008    0.00000000   -0.00000043
     atom   24 type  3   force =     0.00000003    0.00000000   -0.00000159
     atom   25 type  3   force =     0.00000014   -0.00000002    0.00000103
     atom   26 type  3   force =    -0.00000023    0.00000054   -0.00000021
     atom   27 type  3   force =     0.00000043    0.00000083   -0.00000104
     atom   28 type  3   force =     0.00000019    0.00000054    0.00000064
     atom   29 type  3   force =    -0.00000023   -0.00000054   -0.00000021
     atom   30 type  3   force =     0.00000014    0.00000002    0.00000103
     atom   31 type  3   force =     0.00000019   -0.00000054    0.00000064
     atom   32 type  3   force =     0.00000043   -0.00000083   -0.00000104

     Total force =     0.010832     Total SCF correction =     0.000005


     Computing stress (Cartesian axis) and pressure

          total   stress  (Ry/bohr**3)                   (kbar)     P=      -11.50
  -0.00007660   0.00000000   0.00000000          -11.27        0.00        0.00
   0.00000000  -0.00007038   0.00000000            0.00      -10.35        0.00
   0.00000000   0.00000000  -0.00008746            0.00        0.00      -12.87

     kinetic stress (kbar)   4750.70      0.00      0.00
                                0.00   4729.45      0.00
                                0.00      0.00   4793.42

     local   stress (kbar)  -3832.16      0.00      0.00
                                0.00  -3805.25      0.00
                                0.00      0.00  -3012.19

     nonloc. stress (kbar)   2779.48      0.00      0.00
                                0.00   2777.53      0.00
                                0.00      0.00   2777.33

     hartree stress (kbar)   1529.51     -0.00     -0.00
                               -0.00   1500.03     -0.00
                               -0.00     -0.00   1220.64

     exc-cor stress (kbar)   -945.98      0.00      0.00
                                0.00   -946.19      0.00
                                0.00      0.00   -946.12

     corecor stress (kbar)   -461.42     -0.00      0.00
                               -0.00   -461.23      0.00
                                0.00      0.00   -461.06

     ewald   stress (kbar)  -3831.40     -0.00     -0.00
                               -0.00  -3804.69      0.00
                               -0.00      0.00  -4384.88

     hubbard stress (kbar)      0.00      0.00      0.00
                                0.00      0.00      0.00
                                0.00      0.00      0.00

     DFT-D   stress (kbar)      0.00      0.00      0.00
                                0.00      0.00      0.00
                                0.00      0.00      0.00

     XDM     stress (kbar)      0.00      0.00      0.00
                                0.00      0.00      0.00
                                0.00      0.00      0.00

     dft-nl  stress (kbar)      0.00      0.00      0.00
                                0.00      0.00      0.00
                                0.00      0.00      0.00

     TS-vdW  stress (kbar)      0.00      0.00      0.00
                                0.00      0.00      0.00
                                0.00      0.00      0.00


                                0.00      0.00      0.00
                                0.00      0.00      0.00


                                0.00      0.00      0.00


     BFGS Geometry Optimization
     Energy error            =      0.0E+00 Ry
     Gradient error          =      3.2E-03 Ry/Bohr
     Cell gradient error     =      1.3E+01 kbar

     number of scf cycles    =   1
     number of bfgs steps    =   0

     enthalpy           new  =    -569.9247638961 Ry

     new trust radius        =       0.0293192015 bohr
     new conv_thr            =            1.0E-10 Ry

     new unit-cell volume =   4469.09247 a.u.^3 (   662.25118 Ang^3 )
     density =      1.80568 g/cm^3

CELL_PARAMETERS (angstrom)
   6.201285101   0.000000000   0.000000020
   0.000000000   8.118145545   0.000000000
   0.000000042   0.000000000  13.154798734

ATOMIC_POSITIONS (crystal)
Li            0.2352485382        0.7817303652        0.7571131919
Li            0.4571514935        0.7182696442        0.4213727988
Li            0.7352486756        0.7182696342        0.9213727970
Li            0.9571512936        0.7817303746        0.2571131997
Li            0.4571514935        0.2817303558        0.4213727988
Li            0.2352485382        0.2182696348        0.7571131919
Li            0.9571512936        0.2182696254        0.2571131997
Li            0.7352486756        0.2817303658        0.9213727970
Li            0.3461999967        0.7500000031        0.0892430099
Li            0.8462000016        0.7500000026        0.5892430014
Li            0.3461999967        0.2499999969        0.0892430099
Li            0.8462000016        0.2499999974        0.5892430014
P            -0.0000791491        0.0000000000        0.0001288561
P             0.6924791462        0.5000000000        0.1783571507
P             0.4999208474        0.5000000000        0.6783571457
P             0.1924791562        0.0000000000        0.5001288557
S             0.6722170236        0.0000000000        0.9878692296
S             0.0201829828        0.5000000000        0.1906167691
S             0.1722170310        0.5000000000        0.6906167730
S             0.5201829837        0.0000000000        0.4878692331
S             0.1189460234        0.0000000000        0.1486088199
S             0.5734539771        0.5000000000        0.0298771737
S             0.6189460131        0.5000000000        0.5298771882
S             0.0734539813        0.0000000000        0.6486088243
S             0.1193720677        0.7875849140        0.9367580159
S             0.5730279324        0.7124150809        0.2417279801
S             0.6193720362        0.7124150779        0.7417279841
S             0.0730279541        0.7875849055        0.4367580157
S             0.5730279324        0.2875849191        0.2417279801
S             0.1193720677        0.2124150860        0.9367580159
S             0.0730279541        0.2124150945        0.4367580157
S             0.6193720362        0.2875849221        0.7417279841



     Writing config-only to output data dir ./tmp1/pwscf.save/
     NEW-OLD atomic charge density approx. for the potential
     extrapolated charge  151.10598, renormalised to  152.00000

     total cpu time spent up to now is      310.3 secs

     per-process dynamical memory:    15.7 Mb

     Self-consistent Calculation

     iteration #  1     ecut=   120.00 Ry     beta= 0.70
     Davidson diagonalization with overlap

---- Real-time Memory Report at c_bands before calling an iterative solver
           191 MiB given to the printing process from OS
            15 MiB allocation reported by mallinfo(arena+hblkhd)
        233268 MiB available memory on the node where the printing process lives
------------------
     ethr =  1.00E-06,  avg # of iterations =  6.0

     total cpu time spent up to now is      331.7 secs

     total energy              =    -569.91866999 Ry
     estimated scf accuracy    <       0.00613581 Ry

     iteration #  2     ecut=   120.00 Ry     beta= 0.70
     Davidson diagonalization with overlap

---- Real-time Memory Report at c_bands before calling an iterative solver
           191 MiB given to the printing process from OS
            15 MiB allocation reported by mallinfo(arena+hblkhd)
        232768 MiB available memory on the node where the printing process lives
------------------
     ethr =  4.04E-06,  avg # of iterations =  5.0

     total cpu time spent up to now is      350.9 secs

     total energy              =    -569.92500035 Ry
     estimated scf accuracy    <       0.02507187 Ry

     iteration #  3     ecut=   120.00 Ry     beta= 0.70
     Davidson diagonalization with overlap

---- Real-time Memory Report at c_bands before calling an iterative solver
           191 MiB given to the printing process from OS
            15 MiB allocation reported by mallinfo(arena+hblkhd)
        232675 MiB available memory on the node where the printing process lives
------------------
     ethr =  4.04E-06,  avg # of iterations =  3.0

     total cpu time spent up to now is      364.6 secs

     total energy              =    -569.92661522 Ry
     estimated scf accuracy    <       0.00335484 Ry

     iteration #  4     ecut=   120.00 Ry     beta= 0.70
     Davidson diagonalization with overlap

---- Real-time Memory Report at c_bands before calling an iterative solver
           191 MiB given to the printing process from OS
            15 MiB allocation reported by mallinfo(arena+hblkhd)
        232657 MiB available memory on the node where the printing process lives
------------------
     ethr =  2.21E-06,  avg # of iterations =  1.5

     total cpu time spent up to now is      374.0 secs

     total energy              =    -569.92644992 Ry
     estimated scf accuracy    <       0.00132961 Ry

     iteration #  5     ecut=   120.00 Ry     beta= 0.70
     Davidson diagonalization with overlap

---- Real-time Memory Report at c_bands before calling an iterative solver
           191 MiB given to the printing process from OS
            15 MiB allocation reported by mallinfo(arena+hblkhd)
        232597 MiB available memory on the node where the printing process lives
------------------
     ethr =  8.75E-07,  avg # of iterations =  4.0

     total cpu time spent up to now is      387.7 secs

     total energy              =    -569.92664061 Ry
     estimated scf accuracy    <       0.00021882 Ry

     iteration #  6     ecut=   120.00 Ry     beta= 0.70
     Davidson diagonalization with overlap

---- Real-time Memory Report at c_bands before calling an iterative solver
           191 MiB given to the printing process from OS
            15 MiB allocation reported by mallinfo(arena+hblkhd)
        232619 MiB available memory on the node where the printing process lives
------------------
     ethr =  1.44E-07,  avg # of iterations =  2.0

     total cpu time spent up to now is      399.3 secs

     total energy              =    -569.92666162 Ry
     estimated scf accuracy    <       0.00014570 Ry

     iteration #  7     ecut=   120.00 Ry     beta= 0.70
     Davidson diagonalization with overlap

---- Real-time Memory Report at c_bands before calling an iterative solver
           191 MiB given to the printing process from OS
            15 MiB allocation reported by mallinfo(arena+hblkhd)
        232576 MiB available memory on the node where the printing process lives
------------------
     ethr =  9.59E-08,  avg # of iterations =  1.0

     total cpu time spent up to now is      408.1 secs

     total energy              =    -569.92663026 Ry
     estimated scf accuracy    <       0.00014220 Ry

     iteration #  8     ecut=   120.00 Ry     beta= 0.70
     Davidson diagonalization with overlap

---- Real-time Memory Report at c_bands before calling an iterative solver
           191 MiB given to the printing process from OS
            15 MiB allocation reported by mallinfo(arena+hblkhd)
        232546 MiB available memory on the node where the printing process lives
------------------
     ethr =  9.36E-08,  avg # of iterations =  2.0

     total cpu time spent up to now is      420.0 secs

     total energy              =    -569.92661591 Ry
     estimated scf accuracy    <       0.00005978 Ry

     iteration #  9     ecut=   120.00 Ry     beta= 0.70
     Davidson diagonalization with overlap

---- Real-time Memory Report at c_bands before calling an iterative solver
           191 MiB given to the printing process from OS
            15 MiB allocation reported by mallinfo(arena+hblkhd)
        232535 MiB available memory on the node where the printing process lives
------------------
     ethr =  3.93E-08,  avg # of iterations =  2.0

     total cpu time spent up to now is      433.2 secs

     total energy              =    -569.92662571 Ry
     estimated scf accuracy    <       0.00000243 Ry

     iteration # 10     ecut=   120.00 Ry     beta= 0.70
     Davidson diagonalization with overlap

---- Real-time Memory Report at c_bands before calling an iterative solver
           191 MiB given to the printing process from OS
            15 MiB allocation reported by mallinfo(arena+hblkhd)
        232507 MiB available memory on the node where the printing process lives
------------------
     ethr =  1.60E-09,  avg # of iterations =  6.0

     total cpu time spent up to now is      455.7 secs

     total energy              =    -569.92662749 Ry
     estimated scf accuracy    <       0.00000206 Ry

     iteration # 11     ecut=   120.00 Ry     beta= 0.70
     Davidson diagonalization with overlap

---- Real-time Memory Report at c_bands before calling an iterative solver
           191 MiB given to the printing process from OS
            15 MiB allocation reported by mallinfo(arena+hblkhd)
[...]
     atom   19 type  3   force =     0.04151170    0.00000000   -0.03342016
     atom   20 type  3   force =    -0.04151175    0.00000000    0.03341853
     atom   21 type  3   force =    -0.08051819    0.00000000   -0.05437210
     atom   22 type  3   force =     0.08051831    0.00000000    0.05437169
     atom   23 type  3   force =    -0.08051859    0.00000000    0.05437140
     atom   24 type  3   force =     0.08051804    0.00000000   -0.05437191
     atom   25 type  3   force =    -0.01515064    0.07009054   -0.00994690
     atom   26 type  3   force =     0.01515116   -0.07009069    0.00994700
     atom   27 type  3   force =    -0.01514795   -0.07009167    0.00994611
     atom   28 type  3   force =     0.01514788    0.07009199   -0.00994660
     atom   29 type  3   force =     0.01515116    0.07009069    0.00994700
     atom   30 type  3   force =    -0.01515064   -0.07009054   -0.00994690
     atom   31 type  3   force =     0.01514788   -0.07009199   -0.00994660
     atom   32 type  3   force =    -0.01514795    0.07009167    0.00994611
     The ionic contribution  to forces
     atom    1 type  1   force =    -0.16530529    0.60046070    0.50041217
     atom    2 type  1   force =     0.16530833   -0.60046169   -0.50040685
     atom    3 type  1   force =    -0.16530987   -0.60047353   -0.50042205
     atom    4 type  1   force =     0.16530734    0.60047356    0.50043320
     atom    5 type  1   force =     0.16530833    0.60046169   -0.50040685
     atom    6 type  1   force =    -0.16530529   -0.60046070    0.50041217
     atom    7 type  1   force =     0.16530734   -0.60047356    0.50043320
     atom    8 type  1   force =    -0.16530987    0.60047353   -0.50042205
     atom    9 type  1   force =    -0.00000040   -0.00000131   -0.00000312
     atom   10 type  1   force =    -0.00000106   -0.00000219   -0.00000528
     atom   11 type  1   force =    -0.00000040    0.00000131   -0.00000312
     atom   12 type  1   force =    -0.00000106    0.00000219   -0.00000528
     atom   13 type  2   force =    -0.19378077   -0.00000000   -0.28816768
     atom   14 type  2   force =     0.19378517    0.00000000    0.28816818
     atom   15 type  2   force =    -0.19377355    0.00000000    0.28817430
     atom   16 type  2   force =     0.19376903    0.00000000   -0.28818915
     atom   17 type  3   force =    -3.54364933   -0.00000000   -0.29238629
     atom   18 type  3   force =     3.54364001    0.00000000    0.29240132
     atom   19 type  3   force =    -3.54361822    0.00000000    0.29234550
     atom   20 type  3   force =     3.54362663   -0.00000000   -0.29234134
     atom   21 type  3   force =     1.15663602   -0.00000000    3.41513248
     atom   22 type  3   force =    -1.15663161    0.00000000   -3.41513794
     atom   23 type  3   force =     1.15663966    0.00000000   -3.41512773
     atom   24 type  3   force =    -1.15664078   -0.00000000    3.41510980
     atom   25 type  3   force =     1.36326465   -3.26609307   -1.89584792
     atom   26 type  3   force =    -1.36325982    3.26609262    1.89585421
     atom   27 type  3   force =     1.36321833    3.26611246    1.89586930
     atom   28 type  3   force =    -1.36322334   -3.26611366   -1.89587438
     atom   29 type  3   force =    -1.36325982   -3.26609262    1.89585421
     atom   30 type  3   force =     1.36326465    3.26609307   -1.89584792
     atom   31 type  3   force =    -1.36322334    3.26611366   -1.89587438
     atom   32 type  3   force =     1.36321833   -3.26611246    1.89586930
     The local contribution  to forces
     atom    1 type  1   force =     0.17373752   -0.61458916   -0.50394237
     atom    2 type  1   force =    -0.17374056    0.61459039    0.50393719
     atom    3 type  1   force =     0.17374063    0.61460265    0.50395395
     atom    4 type  1   force =    -0.17373805   -0.61460243   -0.50396498
     atom    5 type  1   force =    -0.17374056   -0.61459039    0.50393719
     atom    6 type  1   force =     0.17373752    0.61458916   -0.50394237
     atom    7 type  1   force =    -0.17373805    0.61460243   -0.50396498
     atom    8 type  1   force =     0.17374063   -0.61460265    0.50395395
     atom    9 type  1   force =     0.00000064    0.00000149    0.00000313
     atom   10 type  1   force =     0.00000082    0.00000236    0.00000528
     atom   11 type  1   force =     0.00000064   -0.00000149    0.00000313
     atom   12 type  1   force =     0.00000082   -0.00000236    0.00000528
     atom   13 type  2   force =     0.15695176   -0.00000000    0.24654220
     atom   14 type  2   force =    -0.15695719   -0.00000000   -0.24654440
     atom   15 type  2   force =     0.15694806   -0.00000000   -0.24654750
     atom   16 type  2   force =    -0.15694251    0.00000000    0.24656144
     atom   17 type  3   force =     3.49677665   -0.00000000    0.25929627
     atom   18 type  3   force =    -3.49676702    0.00000000   -0.25931023
     atom   19 type  3   force =     3.49674427    0.00000000   -0.25925542
     atom   20 type  3   force =    -3.49675251   -0.00000000    0.25925217
     atom   21 type  3   force =    -1.07534868   -0.00000000   -3.35799983
     atom   22 type  3   force =     1.07534426    0.00000000    3.35800614
     atom   23 type  3   force =    -1.07535190    0.00000000    3.35799598
     atom   24 type  3   force =     1.07535318    0.00000000   -3.35797774
     atom   25 type  3   force =    -1.34641366    3.19246110    1.90427127
     atom   26 type  3   force =     1.34640826   -3.19245985   -1.90427730
     atom   27 type  3   force =    -1.34637024   -3.19247903   -1.90429168
     atom   28 type  3   force =     1.34637530    3.19248005    1.90429657
     atom   29 type  3   force =     1.34640826    3.19245985   -1.90427730
     atom   30 type  3   force =    -1.34641366   -3.19246110    1.90427127
     atom   31 type  3   force =     1.34637530   -3.19248005    1.90429657
     atom   32 type  3   force =    -1.34637024    3.19247903   -1.90429168
     The core correction contribution to forces
     atom    1 type  1   force =     0.00000000    0.00000000    0.00000000
     atom    2 type  1   force =     0.00000000    0.00000000    0.00000000
     atom    3 type  1   force =     0.00000000    0.00000000    0.00000000
     atom    4 type  1   force =     0.00000000    0.00000000    0.00000000
     atom    5 type  1   force =     0.00000000    0.00000000    0.00000000
     atom    6 type  1   force =     0.00000000    0.00000000    0.00000000
     atom    7 type  1   force =     0.00000000    0.00000000    0.00000000
     atom    8 type  1   force =     0.00000000    0.00000000    0.00000000
     atom    9 type  1   force =     0.00000000    0.00000000    0.00000000
     atom   10 type  1   force =     0.00000000    0.00000000    0.00000000
     atom   11 type  1   force =     0.00000000    0.00000000    0.00000000
     atom   12 type  1   force =     0.00000000    0.00000000    0.00000000
     atom   13 type  2   force =    -0.00131088   -0.00000000   -0.00187270
     atom   14 type  2   force =     0.00131083   -0.00000000    0.00187264
     atom   15 type  2   force =    -0.00131074   -0.00000000    0.00187274
     atom   16 type  2   force =     0.00131080    0.00000000   -0.00187275
     atom   17 type  3   force =     0.00514586    0.00000000   -0.00061321
     atom   18 type  3   force =    -0.00514585   -0.00000000    0.00061321
     atom   19 type  3   force =     0.00514579   -0.00000000    0.00061327
     atom   20 type  3   force =    -0.00514580   -0.00000000   -0.00061327
     atom   21 type  3   force =    -0.00060471   -0.00000000   -0.00311919
     atom   22 type  3   force =     0.00060470   -0.00000000    0.00311922
     atom   23 type  3   force =    -0.00060470   -0.00000000    0.00311918
     atom   24 type  3   force =     0.00060470   -0.00000000   -0.00311916
     atom   25 type  3   force =    -0.00186110    0.00332419    0.00213915
     atom   26 type  3   force =     0.00186108   -0.00332419   -0.00213915
     atom   27 type  3   force =    -0.00186106   -0.00332421   -0.00213917
     atom   28 type  3   force =     0.00186106    0.00332421    0.00213918
     atom   29 type  3   force =     0.00186108    0.00332419   -0.00213915
     atom   30 type  3   force =    -0.00186110   -0.00332419    0.00213915
     atom   31 type  3   force =     0.00186106   -0.00332421    0.00213918
     atom   32 type  3   force =    -0.00186106    0.00332421   -0.00213917
     The Hubbard contrib.    to forces
     atom    1 type  1   force =     0.00000000    0.00000000    0.00000000
     atom    2 type  1   force =     0.00000000    0.00000000    0.00000000
     atom    3 type  1   force =     0.00000000    0.00000000    0.00000000
     atom    4 type  1   force =     0.00000000    0.00000000    0.00000000
     atom    5 type  1   force =     0.00000000    0.00000000    0.00000000
     atom    6 type  1   force =     0.00000000    0.00000000    0.00000000
     atom    7 type  1   force =     0.00000000    0.00000000    0.00000000
     atom    8 type  1   force =     0.00000000    0.00000000    0.00000000
     atom    9 type  1   force =     0.00000000    0.00000000    0.00000000
     atom   10 type  1   force =     0.00000000    0.00000000    0.00000000
     atom   11 type  1   force =     0.00000000    0.00000000    0.00000000
     atom   12 type  1   force =     0.00000000    0.00000000    0.00000000
     atom   13 type  2   force =     0.00000000    0.00000000    0.00000000
     atom   14 type  2   force =     0.00000000    0.00000000    0.00000000
     atom   15 type  2   force =     0.00000000    0.00000000    0.00000000
     atom   16 type  2   force =     0.00000000    0.00000000    0.00000000
     atom   17 type  3   force =     0.00000000    0.00000000    0.00000000
     atom   18 type  3   force =     0.00000000    0.00000000    0.00000000
     atom   19 type  3   force =     0.00000000    0.00000000    0.00000000
     atom   20 type  3   force =     0.00000000    0.00000000    0.00000000
     atom   21 type  3   force =     0.00000000    0.00000000    0.00000000
     atom   22 type  3   force =     0.00000000    0.00000000    0.00000000
     atom   23 type  3   force =     0.00000000    0.00000000    0.00000000
     atom   24 type  3   force =     0.00000000    0.00000000    0.00000000
     atom   25 type  3   force =     0.00000000    0.00000000    0.00000000
     atom   26 type  3   force =     0.00000000    0.00000000    0.00000000
     atom   27 type  3   force =     0.00000000    0.00000000    0.00000000
     atom   28 type  3   force =     0.00000000    0.00000000    0.00000000
     atom   29 type  3   force =     0.00000000    0.00000000    0.00000000
     atom   30 type  3   force =     0.00000000    0.00000000    0.00000000
     atom   31 type  3   force =     0.00000000    0.00000000    0.00000000
     atom   32 type  3   force =     0.00000000    0.00000000    0.00000000
     The SCF correction term to forces
     atom    1 type  1   force =     0.00000003   -0.00000003   -0.00000008
     atom    2 type  1   force =    -0.00000001   -0.00000004    0.00000016
     atom    3 type  1   force =     0.00000001   -0.00000004   -0.00000001
     atom    4 type  1   force =    -0.00000006   -0.00000011   -0.00000001
     atom    5 type  1   force =    -0.00000001    0.00000004    0.00000016
     atom    6 type  1   force =     0.00000003    0.00000003   -0.00000008
     atom    7 type  1   force =    -0.00000006    0.00000011   -0.00000001
     atom    8 type  1   force =     0.00000001    0.00000004   -0.00000001
     atom    9 type  1   force =     0.00000000   -0.00000007   -0.00000009
     atom   10 type  1   force =     0.00000002   -0.00000004    0.00000001
     atom   11 type  1   force =     0.00000000    0.00000007   -0.00000009
     atom   12 type  1   force =     0.00000002    0.00000004    0.00000001
     atom   13 type  2   force =    -0.00000002   -0.00000000   -0.00000027
     atom   14 type  2   force =    -0.00000001    0.00000000    0.00000008
     atom   15 type  2   force =    -0.00000001   -0.00000000    0.00000009
     atom   16 type  2   force =     0.00000001    0.00000000    0.00000023
     atom   17 type  3   force =     0.00000017    0.00000000   -0.00000028
     atom   18 type  3   force =    -0.00000034   -0.00000000    0.00000001
     atom   19 type  3   force =     0.00000018    0.00000000    0.00000001
     atom   20 type  3   force =    -0.00000030   -0.00000000    0.00000029
     atom   21 type  3   force =    -0.00000006   -0.00000000   -0.00000039
     atom   22 type  3   force =     0.00000005    0.00000000   -0.00000003
     atom   23 type  3   force =     0.00000000   -0.00000000    0.00000027
     atom   24 type  3   force =     0.00000019    0.00000000   -0.00000021
     atom   25 type  3   force =    -0.00000003    0.00000001   -0.00000018
     atom   26 type  3   force =     0.00000017   -0.00000051   -0.00000009
     atom   27 type  3   force =    -0.00000014   -0.00000024   -0.00000011
     atom   28 type  3   force =     0.00000011    0.00000014    0.00000049
     atom   29 type  3   force =     0.00000017    0.00000051   -0.00000009
     atom   30 type  3   force =    -0.00000003   -0.00000001   -0.00000018
     atom   31 type  3   force =     0.00000011   -0.00000014    0.00000049
     atom   32 type  3   force =    -0.00000014    0.00000024   -0.00000011

     Total force =     0.003041     Total SCF correction =     0.000002


     Computing stress (Cartesian axis) and pressure

          total   stress  (Ry/bohr**3)                   (kbar)     P=       -0.13
  -0.00000125   0.00000000   0.00000000           -0.18        0.00        0.00
   0.00000000   0.00000103   0.00000000            0.00        0.15        0.00
   0.00000000   0.00000000  -0.00000252            0.00        0.00       -0.37

     kinetic stress (kbar)   5019.52      0.00     -0.00
                                0.00   4998.55      0.00
                               -0.00      0.00   5068.58

     local   stress (kbar)  -3897.68     -0.00     -0.02
                               -0.00  -3788.84      0.00
                               -0.02      0.00  -2992.01

     nonloc. stress (kbar)   2924.23      0.00      0.00
                                0.00   2922.27      0.00
                                0.00      0.00   2922.98

     hartree stress (kbar)   1556.94      0.00      0.01
                                0.00   1496.32     -0.00
                                0.01     -0.00   1219.39

     exc-cor stress (kbar)   -998.46      0.00      0.00
                                0.00   -998.78     -0.00
                                0.00     -0.00   -998.67

     corecor stress (kbar)   -485.90     -0.00     -0.00
                               -0.00   -485.70      0.00
                               -0.00      0.00   -485.54

     ewald   stress (kbar)  -4118.83      0.00      0.01
                                0.00  -4143.66     -0.00
                                0.01     -0.00  -4735.10

     hubbard stress (kbar)      0.00      0.00      0.00
                                0.00      0.00      0.00
                                0.00      0.00      0.00

     DFT-D   stress (kbar)      0.00      0.00      0.00
                                0.00      0.00      0.00
                                0.00      0.00      0.00

     XDM     stress (kbar)      0.00      0.00      0.00
                                0.00      0.00      0.00
                                0.00      0.00      0.00

     dft-nl  stress (kbar)      0.00      0.00      0.00
                                0.00      0.00      0.00
                                0.00      0.00      0.00

     TS-vdW  stress (kbar)      0.00      0.00      0.00
                                0.00      0.00      0.00
                                0.00      0.00      0.00


                                0.00      0.00      0.00
                                0.00      0.00      0.00


                                0.00      0.00      0.00


     Writing all to output data dir ./tmp1/pwscf.save/
 
     init_run     :     19.75s CPU     14.97s WALL (       2 calls)
     electrons    :   8566.24s CPU   4739.60s WALL (      19 calls)
     update_pot   :     14.16s CPU      7.20s WALL (      17 calls)
     forces       :     63.88s CPU     33.45s WALL (      19 calls)
     stress       :    480.48s CPU    248.19s WALL (      19 calls)

     Called by init_run:
     wfcinit      :     17.84s CPU     13.63s WALL (       2 calls)
     wfcinit:atom :      0.11s CPU      0.06s WALL (      32 calls)
     wfcinit:wfcr :     16.94s CPU     12.98s WALL (      32 calls)
     potinit      :      0.41s CPU      0.21s WALL (       2 calls)
     hinit0       :      0.75s CPU      0.48s WALL (       2 calls)

     Called by electrons:
     c_bands      :   7738.56s CPU   4279.73s WALL (     306 calls)
     sum_band     :    763.22s CPU    411.47s WALL (     306 calls)
     v_of_rho     :     11.11s CPU      5.98s WALL (     314 calls)
     v_h          :      1.03s CPU      0.56s WALL (     314 calls)
     v_xc         :     11.30s CPU      6.07s WALL (     352 calls)
     newd         :     25.48s CPU     13.18s WALL (     314 calls)
     mix_rho      :     25.56s CPU     26.09s WALL (     306 calls)

     Called by c_bands:
     init_us_2    :    107.35s CPU     65.36s WALL (   10432 calls)
     init_us_2:cp :    106.93s CPU     65.29s WALL (   10432 calls)
     cegterg      :   7367.41s CPU   3920.51s WALL (    4896 calls)

     Called by sum_band:
     sum_band:wei :      0.02s CPU      0.01s WALL (     306 calls)
     sum_band:loo :    722.75s CPU    390.16s WALL (     306 calls)
     sum_band:buf :     10.10s CPU      8.86s WALL (    4896 calls)
     sum_band:ini :     54.06s CPU     29.94s WALL (    4896 calls)
     sum_band:cal :    146.43s CPU     76.32s WALL (    4896 calls)
     sum_band:bec :      1.38s CPU      1.26s WALL (    4896 calls)
     addusdens    :     35.37s CPU     18.44s WALL (     306 calls)
     addusd:skk   :      1.54s CPU      1.21s WALL (     918 calls)
     addusd:dgemm :     22.22s CPU     11.92s WALL (     918 calls)
     addusd:qvan2 :      8.92s CPU      4.89s WALL (     918 calls)

     Called by *egterg:
     cdiaghg      :    342.21s CPU    245.41s WALL (   20414 calls)
     cegterg:over :    404.94s CPU    222.96s WALL (   15966 calls)
     cegterg:upda :    417.21s CPU    216.81s WALL (   15966 calls)
     cegterg:last :    856.92s CPU    439.72s WALL (   12018 calls)
     cdiaghg:chol :     17.97s CPU     10.17s WALL (   20414 calls)
     cdiaghg:inve :      2.02s CPU      1.13s WALL (   20414 calls)
     cdiaghg:para :     33.73s CPU     19.85s WALL (   40828 calls)
     h_psi        :   4259.10s CPU   2246.69s WALL (   20894 calls)
     s_psi        :    868.51s CPU    433.69s WALL (   20894 calls)
     g_psi        :      8.76s CPU      7.40s WALL (   15966 calls)

     Called by h_psi:
     h_psi:calbec :    517.53s CPU    269.78s WALL (   20894 calls)
     vloc_psi     :   2811.09s CPU   1505.95s WALL (   20894 calls)
     add_vuspsi   :    906.00s CPU    456.98s WALL (   20894 calls)

     General routines
     calbec       :    766.39s CPU    402.34s WALL (   27310 calls)
     fft          :     10.52s CPU      5.77s WALL (    3957 calls)
     ffts         :      0.84s CPU      0.48s WALL (     306 calls)
     fftw         :   3217.08s CPU   1673.55s WALL ( 2619994 calls)
     davcio       :     52.95s CPU     65.62s WALL (   19458 calls)
 
     Parallel routines
 
     PWSCF        :      2h32m CPU      1h24m WALL

 
   This run was terminated on:  18:10:49   4Feb2023            

=------------------------------------------------------------------------------=
   JOB DONE.
=------------------------------------------------------------------------------=
