
     Program PWSCF v.7.0 starts on  4Feb2023 at 18:10:50 

     This program is part of the open-source Quantum ESPRESSO suite
     for quantum simulation of materials; please cite
         "P. Giannozzi et al., J. Phys.:Condens. Matter 21 395502 (2009);
         "P. Giannozzi et al., J. Phys.:Condens. Matter 29 465901 (2017);
         "P. Giannozzi et al., J. Chem. Phys. 152 154105 (2020);
          URL http://www.quantum-espresso.org", 
     in publications or presentations arising from this work. More details at
     http://www.quantum-espresso.org/quote

     Parallel version (MPI & OpenMP), running on     128 processor cores
     Number of MPI processes:                64
     Threads/MPI process:                     2

     MPI processes distributed on     1 nodes
     R & G space division:  proc/nbgrp/npool/nimage =      64
     236387 MiB available memory on the printing compute node when the environment starts
 
     Reading input from gamma_alignrot_min_energy.in

     Current dimensions of program PWSCF are:
     Max number of different atomic species (ntypx) = 10
     Max number of k-points (npk) =  40000
     Max angular momentum in pseudopotentials (lmaxx) =  4
     Found identity + (  0.0000  0.0000 -0.5000) symmetry
     This is a supercell, fractional translations are disabled
     Message from routine setup:
     using ibrav=0 with symmetry is DISCOURAGED, use correct ibrav instead

     Subspace diagonalization in iterative solution of the eigenvalue problem:
     one sub-group per band group will be used
     scalapack distributed-memory algorithm (size of sub-group:  8*  8 procs)

 
     Parallelization info
     --------------------
     sticks:   dense  smooth     PW     G-vecs:    dense   smooth      PW
     Min         100     100     26                11516    11516    1548
     Max         102     102     27                11519    11519    1553
     Sum        6425    6425   1689               737089   737089   99249
 
     Using Slab Decomposition
 


     bravais-lattice index     =            0
     lattice parameter (alat)  =      11.5342  a.u.
     unit-cell volume          =    4149.8635 (a.u.)^3
     number of atoms/cell      =           32
     number of atomic types    =            3
     number of electrons       =       152.00
     number of Kohn-Sham states=           76
     kinetic-energy cutoff     =     120.0000  Ry
     charge density cutoff     =     480.0000  Ry
     scf convergence threshold =      1.0E-10
     mixing beta               =       0.7000
     number of iterations used =            8  plain     mixing
     energy convergence thresh.=      1.0E-04
     force convergence thresh. =      1.0E-03
     press convergence thresh. =      5.0E-01
     Exchange-correlation= PBESOL
                           (   1   4  10   8   0   0   0)
     nstep                     =           50


     celldm(1)=  11.534227  celldm(2)=   0.000000  celldm(3)=   0.000000
     celldm(4)=   0.000000  celldm(5)=   0.000000  celldm(6)=   0.000000

     crystal axes: (cart. coord. in units of alat)
               a(1) = (   1.000000   0.000000   0.000000 )  
               a(2) = (  -0.000000   1.262898   0.000000 )  
               a(3) = (   0.000000   0.000000   2.141410 )  

     reciprocal axes: (cart. coord. in units 2 pi/alat)
               b(1) = (  1.000000  0.000000  0.000000 )  
               b(2) = ( -0.000000  0.791829  0.000000 )  
               b(3) = (  0.000000  0.000000  0.466982 )  


     PseudoPot. # 1 for Li read from file:
     /users/dtisi/LIPS/Training-set/pseudo/Li.pbesol-s-rrkjus_psl.0.2.1.UPF
     MD5 check sum: 72891494af2ab24c7158e97891c09914
     Pseudo is Ultrasoft, Zval =  3.0
     Generated using "atomic" code by A. Dal Corso  v.5.0.2 svn rev. 9415
     Using radial grid of 1017 points,  4 beta functions with: 
                l(1) =   0
                l(2) =   0
                l(3) =   1
                l(4) =   1
     Q(r) pseudized with 0 coefficients 


     PseudoPot. # 2 for P  read from file:
     /users/dtisi/LIPS/Training-set/pseudo/P.pbesol-nl-rrkjus_psl.1.0.0.UPF
     MD5 check sum: 1a601e2f77c1a59e29acfb3f54c43dd8
     Pseudo is Ultrasoft + core correction, Zval =  5.0
     Generated using &quot;atomic&quot; code by A. Dal Corso  v.6.3
     Using radial grid of 1147 points,  4 beta functions with: 
                l(1) =   0
                l(2) =   0
                l(3) =   1
                l(4) =   1
     Q(r) pseudized with 0 coefficients 


     PseudoPot. # 3 for S  read from file:
     /users/dtisi/LIPS/Training-set/pseudo/S.pbesol-nl-rrkjus_psl.1.0.0.UPF
     MD5 check sum: 2d883303d1f226e93f308aa6cca9b8a1
     Pseudo is Ultrasoft + core correction, Zval =  6.0
     Generated using &quot;atomic&quot; code by A. Dal Corso  v.6.3
     Using radial grid of 1151 points,  4 beta functions with: 
                l(1) =   0
                l(2) =   0
                l(3) =   1
                l(4) =   1
     Q(r) pseudized with 0 coefficients 


     atomic species   valence    mass     pseudopotential
        Li             3.00     6.94000     Li( 1.00)
        P              5.00    30.97376     P ( 1.00)
        S              6.00    32.06000     S ( 1.00)

      2 Sym. Ops. (no inversion) found


                                    s                        frac. trans.

      isym =  1     identity                                     

 cryst.   s( 1) = (     1          0          0      )
                  (     0          1          0      )
                  (     0          0          1      )

 cart.    s( 1) = (  1.0000000  0.0000000  0.0000000 )
                  ( -0.0000000  1.0000000  0.0000000 )
                  (  0.0000000  0.0000000  1.0000000 )


      isym =  2     inv. 180 deg rotation - cart. axis [0,1,0]   

 cryst.   s( 2) = (     1          0          0      )
                  (     0         -1          0      )
                  (     0          0          1      )

 cart.    s( 2) = (  1.0000000  0.0000000  0.0000000 )
                  (  0.0000000 -1.0000000  0.0000000 )
                  (  0.0000000  0.0000000  1.0000000 )


   Cartesian axes

     site n.     atom                  positions (alat units)
         1           Li  tau(   1) = (   0.0237000   0.3159772   0.5450960  )
         2           Li  tau(   2) = (   0.5237000   0.3154720   0.9072085  )
         3           Li  tau(   3) = (   0.5237000   0.9474264   0.9072085  )
         4           Li  tau(   4) = (   0.0237000   0.9469212   0.5450960  )
         5           Li  tau(   5) = (   0.4918000   0.0000000   0.3460519  )
         6           Li  tau(   6) = (   0.9918000   0.6314492   0.0355474  )
         7           Li  tau(   7) = (   0.0237000   0.3159772   1.6158013  )
         8           Li  tau(   8) = (   0.5237000   0.3154720   1.9779138  )
         9           Li  tau(   9) = (   0.5237000   0.9474264   1.9779138  )
        10           Li  tau(  10) = (   0.0237000   0.9469212   1.6158013  )
        11           Li  tau(  11) = (   0.4918000   0.0000000   1.4167572  )
        12           Li  tau(  12) = (   0.9918000   0.6314492   1.1062526  )
        13           P   tau(  13) = (   0.0000000   0.0000000   0.0000000  )
        14           P   tau(  14) = (   0.5000000   0.6314492   0.3815993  )
        15           P   tau(  15) = (   0.0000000   0.0000000   1.0707052  )
        16           P   tau(  16) = (   0.5000000   0.6314492   1.4523046  )
        17           S   tau(  17) = (   0.8915000   0.2759433   0.9099924  )
        18           S   tau(  18) = (   0.3915000   0.3555059   0.5423122  )
        19           S   tau(  19) = (   0.3915000   0.9073925   0.5423122  )
        20           S   tau(  20) = (   0.8915000   0.9869551   0.9099924  )
        21           S   tau(  21) = (   0.8938000   0.0000000   0.3067570  )
        22           S   tau(  22) = (   0.3938000   0.6314492   0.0748423  )
        23           S   tau(  23) = (   0.3288000   0.0000000   1.0526103  )
        24           S   tau(  24) = (   0.8288000   0.6314492   0.3996943  )
        25           S   tau(  25) = (   0.8915000   0.2759433   1.9806976  )
        26           S   tau(  26) = (   0.3915000   0.3555059   1.6130174  )
        27           S   tau(  27) = (   0.3915000   0.9073925   1.6130174  )
        28           S   tau(  28) = (   0.8915000   0.9869551   1.9806976  )
        29           S   tau(  29) = (   0.8938000   0.0000000   1.3774623  )
        30           S   tau(  30) = (   0.3938000   0.6314492   1.1455475  )
        31           S   tau(  31) = (   0.3288000   0.0000000   2.1233155  )
        32           S   tau(  32) = (   0.8288000   0.6314492   1.4703995  )

   Crystallographic axes

     site n.     atom                  positions (cryst. coord.)
         1           Li  tau(   1) = (  0.0237000  0.2502000  0.2545500  )
         2           Li  tau(   2) = (  0.5237000  0.2498000  0.4236500  )
         3           Li  tau(   3) = (  0.5237000  0.7502000  0.4236500  )
         4           Li  tau(   4) = (  0.0237000  0.7498000  0.2545500  )
         5           Li  tau(   5) = (  0.4918000 -0.0000000  0.1616000  )
         6           Li  tau(   6) = (  0.9918000  0.5000000  0.0166000  )
         7           Li  tau(   7) = (  0.0237000  0.2502000  0.7545500  )
         8           Li  tau(   8) = (  0.5237000  0.2498000  0.9236500  )
         9           Li  tau(   9) = (  0.5237000  0.7502000  0.9236500  )
        10           Li  tau(  10) = (  0.0237000  0.7498000  0.7545500  )
        11           Li  tau(  11) = (  0.4918000 -0.0000000  0.6616000  )
        12           Li  tau(  12) = (  0.9918000  0.5000000  0.5166000  )
        13           P   tau(  13) = (  0.0000000  0.0000000  0.0000000  )
        14           P   tau(  14) = (  0.5000000  0.5000000  0.1782000  )
        15           P   tau(  15) = (  0.0000000  0.0000000  0.5000000  )
        16           P   tau(  16) = (  0.5000000  0.5000000  0.6782000  )
        17           S   tau(  17) = (  0.8915000  0.2185000  0.4249500  )
        18           S   tau(  18) = (  0.3915000  0.2815000  0.2532500  )
        19           S   tau(  19) = (  0.3915000  0.7185000  0.2532500  )
        20           S   tau(  20) = (  0.8915000  0.7815000  0.4249500  )
        21           S   tau(  21) = (  0.8938000 -0.0000000  0.1432500  )
        22           S   tau(  22) = (  0.3938000  0.5000000  0.0349500  )
        23           S   tau(  23) = (  0.3288000  0.0000000  0.4915500  )
        24           S   tau(  24) = (  0.8288000  0.5000000  0.1866500  )
        25           S   tau(  25) = (  0.8915000  0.2185000  0.9249500  )
        26           S   tau(  26) = (  0.3915000  0.2815000  0.7532500  )
        27           S   tau(  27) = (  0.3915000  0.7185000  0.7532500  )
        28           S   tau(  28) = (  0.8915000  0.7815000  0.9249500  )
        29           S   tau(  29) = (  0.8938000 -0.0000000  0.6432500  )
        30           S   tau(  30) = (  0.3938000  0.5000000  0.5349500  )
        31           S   tau(  31) = (  0.3288000  0.0000000  0.9915500  )
        32           S   tau(  32) = (  0.8288000  0.5000000  0.6866500  )

     number of k points=    16
                       cart. coord. in units 2pi/alat
        k(    1) = (   0.1250000   0.0989787   0.0583727), wk =   0.1250000
        k(    2) = (   0.1250000   0.0989787   0.1751182), wk =   0.1250000
        k(    3) = (   0.1250000   0.2969360   0.0583727), wk =   0.1250000
        k(    4) = (   0.1250000   0.2969360   0.1751182), wk =   0.1250000
        k(    5) = (   0.3750000   0.0989787   0.0583727), wk =   0.1250000
        k(    6) = (   0.3750000   0.0989787   0.1751182), wk =   0.1250000
        k(    7) = (   0.3750000   0.2969360   0.0583727), wk =   0.1250000
        k(    8) = (   0.3750000   0.2969360   0.1751182), wk =   0.1250000
        k(    9) = (   0.1250000  -0.0989787  -0.0583727), wk =   0.1250000
        k(   10) = (   0.1250000  -0.0989787  -0.1751182), wk =   0.1250000
        k(   11) = (   0.1250000  -0.2969360  -0.0583727), wk =   0.1250000
        k(   12) = (   0.1250000  -0.2969360  -0.1751182), wk =   0.1250000
        k(   13) = (   0.3750000  -0.0989787  -0.0583727), wk =   0.1250000
        k(   14) = (   0.3750000  -0.0989787  -0.1751182), wk =   0.1250000
        k(   15) = (   0.3750000  -0.2969360  -0.0583727), wk =   0.1250000
        k(   16) = (   0.3750000  -0.2969360  -0.1751182), wk =   0.1250000

                       cryst. coord.
        k(    1) = (   0.1250000   0.1250000   0.1250000), wk =   0.1250000
        k(    2) = (   0.1250000   0.1250000   0.3750000), wk =   0.1250000
        k(    3) = (   0.1250000   0.3750000   0.1250000), wk =   0.1250000
        k(    4) = (   0.1250000   0.3750000   0.3750000), wk =   0.1250000
        k(    5) = (   0.3750000   0.1250000   0.1250000), wk =   0.1250000
        k(    6) = (   0.3750000   0.1250000   0.3750000), wk =   0.1250000
        k(    7) = (   0.3750000   0.3750000   0.1250000), wk =   0.1250000
        k(    8) = (   0.3750000   0.3750000   0.3750000), wk =   0.1250000
        k(    9) = (   0.1250000  -0.1250000  -0.1250000), wk =   0.1250000
        k(   10) = (   0.1250000  -0.1250000  -0.3750000), wk =   0.1250000
        k(   11) = (   0.1250000  -0.3750000  -0.1250000), wk =   0.1250000
        k(   12) = (   0.1250000  -0.3750000  -0.3750000), wk =   0.1250000
        k(   13) = (   0.3750000  -0.1250000  -0.1250000), wk =   0.1250000
        k(   14) = (   0.3750000  -0.1250000  -0.3750000), wk =   0.1250000
        k(   15) = (   0.3750000  -0.3750000  -0.1250000), wk =   0.1250000
        k(   16) = (   0.3750000  -0.3750000  -0.3750000), wk =   0.1250000

     Dense  grid:   737089 G-vectors     FFT dimensions: (  81, 108, 180)

     Dynamical RAM for                 wfc:       1.67 MB

     Dynamical RAM for     wfc (w. buffer):       1.67 MB

     Dynamical RAM for           str. fact:       0.53 MB

     Dynamical RAM for           local pot:       0.00 MB

     Dynamical RAM for          nlocal pot:       5.62 MB

     Dynamical RAM for                qrad:       3.01 MB

     Dynamical RAM for          rho,v,vnew:       1.13 MB

     Dynamical RAM for               rhoin:       0.38 MB

     Dynamical RAM for            rho*nmix:       2.81 MB

     Dynamical RAM for           G-vectors:       0.75 MB

     Dynamical RAM for          h,s,v(r/c):       0.02 MB

     Dynamical RAM for          <psi|beta>:       0.30 MB

     Dynamical RAM for                 psi:       3.34 MB

     Dynamical RAM for                hpsi:       3.34 MB

     Dynamical RAM for                spsi:       3.34 MB

     Dynamical RAM for      wfcinit/wfcrot:       4.82 MB

     Dynamical RAM for           addusdens:      10.37 MB

     Dynamical RAM for          addusforce:      15.74 MB

     Dynamical RAM for         addusstress:       8.79 MB

     Estimated static dynamical RAM per process >      14.79 MB

     Estimated max dynamical RAM per process >      33.34 MB

     Estimated total dynamical RAM >       2.08 GB

     Initial potential from superposition of free atoms

     starting charge     151.9412, renormalised to     152.0000
     Starting wfcs are  104 randomized atomic wfcs

     total cpu time spent up to now is        5.6 secs

     per-process dynamical memory:    15.0 Mb

     Self-consistent Calculation

     iteration #  1     ecut=   120.00 Ry     beta= 0.70
     Davidson diagonalization with overlap

---- Real-time Memory Report at c_bands before calling an iterative solver
           129 MiB given to the printing process from OS
            14 MiB allocation reported by mallinfo(arena+hblkhd)
        233408 MiB available memory on the node where the printing process lives
------------------
     ethr =  1.00E-02,  avg # of iterations =  2.0

     total cpu time spent up to now is       17.4 secs

     total energy              =    -569.09394909 Ry
     estimated scf accuracy    <       1.53359960 Ry

     iteration #  2     ecut=   120.00 Ry     beta= 0.70
     Davidson diagonalization with overlap

---- Real-time Memory Report at c_bands before calling an iterative solver
           147 MiB given to the printing process from OS
            14 MiB allocation reported by mallinfo(arena+hblkhd)
        232751 MiB available memory on the node where the printing process lives
------------------
     ethr =  1.01E-03,  avg # of iterations =  3.5

     total cpu time spent up to now is       32.7 secs

     total energy              =    -569.58617402 Ry
     estimated scf accuracy    <       1.68838043 Ry

     iteration #  3     ecut=   120.00 Ry     beta= 0.70
     Davidson diagonalization with overlap

---- Real-time Memory Report at c_bands before calling an iterative solver
           160 MiB given to the printing process from OS
            14 MiB allocation reported by mallinfo(arena+hblkhd)
        231850 MiB available memory on the node where the printing process lives
------------------
     ethr =  1.01E-03,  avg # of iterations =  2.1

     total cpu time spent up to now is       45.4 secs

     total energy              =    -569.83798260 Ry
     estimated scf accuracy    <       0.06977439 Ry

     iteration #  4     ecut=   120.00 Ry     beta= 0.70
     Davidson diagonalization with overlap

---- Real-time Memory Report at c_bands before calling an iterative solver
           162 MiB given to the printing process from OS
            14 MiB allocation reported by mallinfo(arena+hblkhd)
        231853 MiB available memory on the node where the printing process lives
------------------
     ethr =  4.59E-05,  avg # of iterations =  5.0

     total cpu time spent up to now is       64.8 secs

     total energy              =    -569.88684557 Ry
     estimated scf accuracy    <       0.04031682 Ry

     iteration #  5     ecut=   120.00 Ry     beta= 0.70
     Davidson diagonalization with overlap

---- Real-time Memory Report at c_bands before calling an iterative solver
           164 MiB given to the printing process from OS
            14 MiB allocation reported by mallinfo(arena+hblkhd)
        231797 MiB available memory on the node where the printing process lives
------------------
     ethr =  2.65E-05,  avg # of iterations =  2.0

     total cpu time spent up to now is       77.3 secs

     total energy              =    -569.89191813 Ry
     estimated scf accuracy    <       0.00326441 Ry

     iteration #  6     ecut=   120.00 Ry     beta= 0.70
     Davidson diagonalization with overlap

---- Real-time Memory Report at c_bands before calling an iterative solver
           164 MiB given to the printing process from OS
            14 MiB allocation reported by mallinfo(arena+hblkhd)
        231781 MiB available memory on the node where the printing process lives
------------------
     ethr =  2.15E-06,  avg # of iterations =  5.0

     total cpu time spent up to now is       94.0 secs

     total energy              =    -569.89349284 Ry
     estimated scf accuracy    <       0.00097695 Ry

     iteration #  7     ecut=   120.00 Ry     beta= 0.70
     Davidson diagonalization with overlap

---- Real-time Memory Report at c_bands before calling an iterative solver
           164 MiB given to the printing process from OS
            14 MiB allocation reported by mallinfo(arena+hblkhd)
        231795 MiB available memory on the node where the printing process lives
------------------
     ethr =  6.43E-07,  avg # of iterations =  2.4

     total cpu time spent up to now is      107.6 secs

     total energy              =    -569.89365871 Ry
     estimated scf accuracy    <       0.00004925 Ry

     iteration #  8     ecut=   120.00 Ry     beta= 0.70
     Davidson diagonalization with overlap

---- Real-time Memory Report at c_bands before calling an iterative solver
           165 MiB given to the printing process from OS
            14 MiB allocation reported by mallinfo(arena+hblkhd)
        231706 MiB available memory on the node where the printing process lives
------------------
     ethr =  3.24E-08,  avg # of iterations =  6.7

     total cpu time spent up to now is      131.0 secs

     total energy              =    -569.89371126 Ry
     estimated scf accuracy    <       0.00004831 Ry

     iteration #  9     ecut=   120.00 Ry     beta= 0.70
     Davidson diagonalization with overlap

---- Real-time Memory Report at c_bands before calling an iterative solver
           167 MiB given to the printing process from OS
            14 MiB allocation reported by mallinfo(arena+hblkhd)
        231614 MiB available memory on the node where the printing process lives
------------------
     ethr =  3.18E-08,  avg # of iterations =  2.0

     total cpu time spent up to now is      144.3 secs

     total energy              =    -569.89371943 Ry
     estimated scf accuracy    <       0.00000107 Ry

     iteration # 10     ecut=   120.00 Ry     beta= 0.70
     Davidson diagonalization with overlap

---- Real-time Memory Report at c_bands before calling an iterative solver
           167 MiB given to the printing process from OS
            14 MiB allocation reported by mallinfo(arena+hblkhd)
        231585 MiB available memory on the node where the printing process lives
------------------
     ethr =  7.03E-10,  avg # of iterations =  6.6

     total cpu time spent up to now is      170.2 secs

     total energy              =    -569.89372124 Ry
     estimated scf accuracy    <       0.00000236 Ry

     iteration # 11     ecut=   120.00 Ry     beta= 0.70
     Davidson diagonalization with overlap

---- Real-time Memory Report at c_bands before calling an iterative solver
           168 MiB given to the printing process from OS
            14 MiB allocation reported by mallinfo(arena+hblkhd)
        231494 MiB available memory on the node where the printing process lives
------------------
     ethr =  7.03E-10,  avg # of iterations =  2.0

     total cpu time spent up to now is      182.5 secs

     total energy              =    -569.89372104 Ry
     estimated scf accuracy    <       0.00000109 Ry

     iteration # 12     ecut=   120.00 Ry     beta= 0.70
     Davidson diagonalization with overlap

---- Real-time Memory Report at c_bands before calling an iterative solver
           168 MiB given to the printing process from OS
            14 MiB allocation reported by mallinfo(arena+hblkhd)
        231504 MiB available memory on the node where the printing process lives
------------------
     ethr =  7.03E-10,  avg # of iterations =  2.0

     total cpu time spent up to now is      193.0 secs

     total energy              =    -569.89372100 Ry
     estimated scf accuracy    <       0.00000026 Ry

     iteration # 13     ecut=   120.00 Ry     beta= 0.70
     Davidson diagonalization with overlap

---- Real-time Memory Report at c_bands before calling an iterative solver
           168 MiB given to the printing process from OS
            14 MiB allocation reported by mallinfo(arena+hblkhd)
        231512 MiB available memory on the node where the printing process lives
------------------
     ethr =  1.68E-10,  avg # of iterations =  3.0

     total cpu time spent up to now is      206.3 secs

     total energy              =    -569.89372109 Ry
     estimated scf accuracy    <          3.5E-09 Ry

     iteration # 14     ecut=   120.00 Ry     beta= 0.70
     Davidson diagonalization with overlap

---- Real-time Memory Report at c_bands before calling an iterative solver
           168 MiB given to the printing process from OS
            14 MiB allocation reported by mallinfo(arena+hblkhd)
        231521 MiB available memory on the node where the printing process lives
------------------
     ethr =  2.33E-12,  avg # of iterations =  6.2

     total cpu time spent up to now is      233.2 secs

     total energy              =    -569.89372109 Ry
     estimated scf accuracy    <       0.00000001 Ry

     iteration # 15     ecut=   120.00 Ry     beta= 0.70
     Davidson diagonalization with overlap

---- Real-time Memory Report at c_bands before calling an iterative solver
           169 MiB given to the printing process from OS
            14 MiB allocation reported by mallinfo(arena+hblkhd)
        231494 MiB available memory on the node where the printing process lives
------------------
     ethr =  2.33E-12,  avg # of iterations =  2.0

     total cpu time spent up to now is      245.7 secs

     total energy              =    -569.89372109 Ry
     estimated scf accuracy    <          5.4E-09 Ry

     iteration # 16     ecut=   120.00 Ry     beta= 0.70
     Davidson diagonalization with overlap

---- Real-time Memory Report at c_bands before calling an iterative solver
           169 MiB given to the printing process from OS
            14 MiB allocation reported by mallinfo(arena+hblkhd)
        231507 MiB available memory on the node where the printing process lives
------------------
     ethr =  2.33E-12,  avg # of iterations =  3.0

     total cpu time spent up to now is      265.2 secs

     End of self-consistent calculation

          k = 0.1250 0.0990 0.0584 ( 92094 PWs)   bands (ev):

   -41.1345 -41.1345 -41.1344 -41.1344 -40.7342 -40.7342 -40.7338 -40.7338
   -40.7335 -40.7335 -40.7330 -40.7330 -12.1913 -12.1492 -12.0993 -12.0812
    -9.2263  -9.1321  -9.0655  -9.0482  -9.0256  -8.9862  -8.9411  -8.9324
    -8.8927  -8.8858  -8.8834  -8.8508  -4.9978  -4.7485  -4.6506  -4.5387
    -2.0295  -2.0292  -1.9665  -1.9572  -1.9038  -1.8045  -1.7582  -1.6987
    -1.6627  -1.6472  -1.6384  -1.6290   0.4918   0.5346   0.5553   0.6166
     0.6551   0.7254   0.7689   0.7915   0.8866   0.9842   1.1033   1.1710
     1.2766   1.2815   1.5362   1.7030   1.7797   1.8675   1.8894   1.9538
     2.0119   2.0414   2.1176   2.1712   2.2118   2.2769   2.3615   2.3927
     2.4243   2.4513   2.6406   2.7641

     occupation numbers 
     1.0000   1.0000   1.0000   1.0000   1.0000   1.0000   1.0000   1.0000
     1.0000   1.0000   1.0000   1.0000   1.0000   1.0000   1.0000   1.0000
     1.0000   1.0000   1.0000   1.0000   1.0000   1.0000   1.0000   1.0000
     1.0000   1.0000   1.0000   1.0000   1.0000   1.0000   1.0000   1.0000
     1.0000   1.0000   1.0000   1.0000   1.0000   1.0000   1.0000   1.0000
     1.0000   1.0000   1.0000   1.0000   1.0000   1.0000   1.0000   1.0000
     1.0000   1.0000   1.0000   1.0000   1.0000   1.0000   1.0000   1.0000
     1.0000   1.0000   1.0000   1.0000   1.0000   1.0000   1.0000   1.0000
     1.0000   1.0000   1.0000   1.0000   1.0000   1.0000   1.0000   1.0000
     1.0000   1.0000   1.0000   1.0000

          k = 0.1250 0.0990 0.1751 ( 92104 PWs)   bands (ev):

   -41.1345 -41.1345 -41.1344 -41.1344 -40.7342 -40.7342 -40.7338 -40.7338
   -40.7335 -40.7335 -40.7330 -40.7330 -12.1812 -12.1645 -12.0912 -12.0844
    -9.2008  -9.1621  -9.0594  -9.0536  -9.0117  -8.9977  -8.9445  -8.9415
    -8.8850  -8.8833  -8.8731  -8.8578  -4.9447  -4.8534  -4.5847  -4.5502
    -2.0328  -2.0323  -1.9439  -1.9174  -1.9059  -1.8334  -1.7635  -1.7347
    -1.6568  -1.6539  -1.6372  -1.6305   0.4772   0.5239   0.5652   0.5834
     0.6911   0.6933   0.7486   0.7645   0.9341   0.9719   1.2009   1.2177
     1.3204   1.3550   1.4906   1.6879   1.8140   1.8340   1.8745   1.9264
     1.9952   2.0071   2.0900   2.1103   2.2735   2.2919   2.3590   2.3632
     2.4551   2.4560   2.6424   2.6972

     occupation numbers 
     1.0000   1.0000   1.0000   1.0000   1.0000   1.0000   1.0000   1.0000
     1.0000   1.0000   1.0000   1.0000   1.0000   1.0000   1.0000   1.0000
     1.0000   1.0000   1.0000   1.0000   1.0000   1.0000   1.0000   1.0000
     1.0000   1.0000   1.0000   1.0000   1.0000   1.0000   1.0000   1.0000
     1.0000   1.0000   1.0000   1.0000   1.0000   1.0000   1.0000   1.0000
     1.0000   1.0000   1.0000   1.0000   1.0000   1.0000   1.0000   1.0000
     1.0000   1.0000   1.0000   1.0000   1.0000   1.0000   1.0000   1.0000
     1.0000   1.0000   1.0000   1.0000   1.0000   1.0000   1.0000   1.0000
     1.0000   1.0000   1.0000   1.0000   1.0000   1.0000   1.0000   1.0000
     1.0000   1.0000   1.0000   1.0000

          k = 0.1250 0.2969 0.0584 ( 92092 PWs)   bands (ev):

   -41.1345 -41.1345 -41.1345 -41.1344 -40.7341 -40.7341 -40.7339 -40.7339
   -40.7333 -40.7333 -40.7332 -40.7331 -12.1591 -12.1335 -12.1134 -12.1128
    -9.2023  -9.1444  -9.1096  -9.0726  -9.0083  -8.9588  -8.9489  -8.9421
    -8.8962  -8.8845  -8.8716  -8.8608  -4.8384  -4.6852  -4.6481  -4.6451
    -2.0249  -2.0193  -2.0015  -1.9265  -1.9132  -1.8115  -1.7826  -1.7601
    -1.6423  -1.6348  -1.6332  -1.6174   0.4051   0.4784   0.5097   0.5885
     0.6413   0.7612   0.7760   0.8788   0.9805   1.0996   1.1847   1.2584
     1.4196   1.4199   1.5539   1.5918   1.6330   1.6878   1.7131   1.8564
     1.9458   2.0295   2.0893   2.1191   2.2034   2.2846   2.2870   2.3424
     2.3978   2.4201   2.4683   2.5784

     occupation numbers 
     1.0000   1.0000   1.0000   1.0000   1.0000   1.0000   1.0000   1.0000
     1.0000   1.0000   1.0000   1.0000   1.0000   1.0000   1.0000   1.0000
     1.0000   1.0000   1.0000   1.0000   1.0000   1.0000   1.0000   1.0000
     1.0000   1.0000   1.0000   1.0000   1.0000   1.0000   1.0000   1.0000
     1.0000   1.0000   1.0000   1.0000   1.0000   1.0000   1.0000   1.0000
     1.0000   1.0000   1.0000   1.0000   1.0000   1.0000   1.0000   1.0000
     1.0000   1.0000   1.0000   1.0000   1.0000   1.0000   1.0000   1.0000
     1.0000   1.0000   1.0000   1.0000   1.0000   1.0000   1.0000   1.0000
     1.0000   1.0000   1.0000   1.0000   1.0000   1.0000   1.0000   1.0000
     1.0000   1.0000   1.0000   1.0000

          k = 0.1250 0.2969 0.1751 ( 92055 PWs)   bands (ev):

   -41.1345 -41.1345 -41.1345 -41.1344 -40.7341 -40.7341 -40.7339 -40.7339
   -40.7333 -40.7333 -40.7331 -40.7331 -12.1525 -12.1422 -12.1124 -12.1118
    -9.1770  -9.1388  -9.1242  -9.0944  -8.9995  -8.9807  -8.9446  -8.9403
    -8.8912  -8.8864  -8.8640  -8.8595  -4.8018  -4.7433  -4.6382  -4.6320
    -2.0116  -2.0038  -1.9884  -1.9474  -1.8907  -1.8464  -1.7784  -1.7671
    -1.6471  -1.6421  -1.6346  -1.6302   0.4491   0.5055   0.5516   0.5712
     0.6395   0.7107   0.8374   0.8750   1.0075   1.0342   1.2038   1.2539
     1.3537   1.3651   1.5347   1.5617   1.7116   1.7118   1.7376   1.8131
     1.9724   2.0159   2.0188   2.0640   2.2595   2.2945   2.3300   2.3811
     2.4156   2.4629   2.4675   2.5303

     occupation numbers 
     1.0000   1.0000   1.0000   1.0000   1.0000   1.0000   1.0000   1.0000
     1.0000   1.0000   1.0000   1.0000   1.0000   1.0000   1.0000   1.0000
     1.0000   1.0000   1.0000   1.0000   1.0000   1.0000   1.0000   1.0000
     1.0000   1.0000   1.0000   1.0000   1.0000   1.0000   1.0000   1.0000
     1.0000   1.0000   1.0000   1.0000   1.0000   1.0000   1.0000   1.0000
     1.0000   1.0000   1.0000   1.0000   1.0000   1.0000   1.0000   1.0000
     1.0000   1.0000   1.0000   1.0000   1.0000   1.0000   1.0000   1.0000
     1.0000   1.0000   1.0000   1.0000   1.0000   1.0000   1.0000   1.0000
     1.0000   1.0000   1.0000   1.0000   1.0000   1.0000   1.0000   1.0000
     1.0000   1.0000   1.0000   1.0000

          k = 0.3750 0.0990 0.0584 ( 92135 PWs)   bands (ev):

   -41.1345 -41.1345 -41.1345 -41.1344 -40.7340 -40.7340 -40.7337 -40.7337
   -40.7336 -40.7335 -40.7332 -40.7332 -12.1378 -12.1122 -12.0910 -12.0910
    -9.2005  -9.1490  -9.1339  -9.1041  -8.9981  -8.9866  -8.9707  -8.9565
    -8.9564  -8.9522  -8.9259  -8.9051  -4.8332  -4.6784  -4.6336  -4.6301
    -1.8908  -1.8048  -1.7942  -1.7799  -1.6977  -1.6882  -1.6829  -1.6640
    -1.5910  -1.5333  -1.4982  -1.4879   0.3695   0.3891   0.4366   0.4642
     0.5093   0.5616   0.5946   0.6295   0.8369   0.9008   0.9271   1.0994
     1.4047   1.4670   1.4925   1.5001   1.5066   1.7081   1.7603   1.8058
     2.1497   2.1952   2.2957   2.3074   2.3128   2.3698   2.4011   2.4330
     2.4680   2.4966   2.6059   2.6087

     occupation numbers 
     1.0000   1.0000   1.0000   1.0000   1.0000   1.0000   1.0000   1.0000
     1.0000   1.0000   1.0000   1.0000   1.0000   1.0000   1.0000   1.0000
     1.0000   1.0000   1.0000   1.0000   1.0000   1.0000   1.0000   1.0000
     1.0000   1.0000   1.0000   1.0000   1.0000   1.0000   1.0000   1.0000
     1.0000   1.0000   1.0000   1.0000   1.0000   1.0000   1.0000   1.0000
     1.0000   1.0000   1.0000   1.0000   1.0000   1.0000   1.0000   1.0000
     1.0000   1.0000   1.0000   1.0000   1.0000   1.0000   1.0000   1.0000
     1.0000   1.0000   1.0000   1.0000   1.0000   1.0000   1.0000   1.0000
     1.0000   1.0000   1.0000   1.0000   1.0000   1.0000   1.0000   1.0000
     1.0000   1.0000   1.0000   1.0000

          k = 0.3750 0.0990 0.1751 ( 92178 PWs)   bands (ev):

   -41.1345 -41.1345 -41.1345 -41.1344 -40.7340 -40.7340 -40.7337 -40.7337
   -40.7336 -40.7335 -40.7332 -40.7332 -12.1313 -12.1210 -12.0901 -12.0898
    -9.1838  -9.1621  -9.1247  -9.1126  -9.0017  -8.9986  -8.9605  -8.9571
    -8.9550  -8.9529  -8.9198  -8.9109  -4.7962  -4.7372  -4.6215  -4.6178
    -1.8584  -1.8146  -1.7804  -1.7675  -1.7192  -1.7126  -1.6833  -1.6732
    -1.5783  -1.5533  -1.5032  -1.4957   0.3751   0.4015   0.4250   0.4585
     0.5503   0.5879   0.6091   0.6420   0.8241   0.8507   0.9750   1.0537
     1.4428   1.4730   1.4732   1.5020   1.5814   1.6928   1.7503   1.7644
     2.1613   2.1838   2.2906   2.2933   2.3195   2.3483   2.3908   2.4020
     2.4945   2.5235   2.5727   2.5876

     occupation numbers 
     1.0000   1.0000   1.0000   1.0000   1.0000   1.0000   1.0000   1.0000
     1.0000   1.0000   1.0000   1.0000   1.0000   1.0000   1.0000   1.0000
     1.0000   1.0000   1.0000   1.0000   1.0000   1.0000   1.0000   1.0000
     1.0000   1.0000   1.0000   1.0000   1.0000   1.0000   1.0000   1.0000
     1.0000   1.0000   1.0000   1.0000   1.0000   1.0000   1.0000   1.0000
     1.0000   1.0000   1.0000   1.0000   1.0000   1.0000   1.0000   1.0000
     1.0000   1.0000   1.0000   1.0000   1.0000   1.0000   1.0000   1.0000
     1.0000   1.0000   1.0000   1.0000   1.0000   1.0000   1.0000   1.0000
     1.0000   1.0000   1.0000   1.0000   1.0000   1.0000   1.0000   1.0000
     1.0000   1.0000   1.0000   1.0000

          k = 0.3750 0.2969 0.0584 ( 92109 PWs)   bands (ev):

   -41.1345 -41.1345 -41.1345 -41.1344 -40.7339 -40.7339 -40.7337 -40.7337
   -40.7336 -40.7335 -40.7334 -40.7334 -12.1229 -12.1048 -12.1035 -12.0960
    -9.1735  -9.1573  -9.1425  -9.1362  -9.0096  -9.0070  -8.9843  -8.9801
    -8.9574  -8.9326  -8.9062  -8.8868  -4.7468  -4.6623  -4.6186  -4.6003
    -1.9042  -1.8698  -1.8556  -1.8427  -1.6876  -1.6732  -1.6562  -1.6476
    -1.5238  -1.4848  -1.4811  -1.4731   0.3184   0.3674   0.3934   0.4219
     0.5164   0.5513   0.6354   0.6881   0.8161   0.9927   1.0139   1.0496
     1.3722   1.3880   1.4428   1.4591   1.5535   1.6544   1.6639   1.6799
     2.1094   2.1164   2.1623   2.1631   2.3077   2.3284   2.3499   2.4306
     2.4810   2.5096   2.5336   2.6079

     occupation numbers 
     1.0000   1.0000   1.0000   1.0000   1.0000   1.0000   1.0000   1.0000
     1.0000   1.0000   1.0000   1.0000   1.0000   1.0000   1.0000   1.0000
     1.0000   1.0000   1.0000   1.0000   1.0000   1.0000   1.0000   1.0000
     1.0000   1.0000   1.0000   1.0000   1.0000   1.0000   1.0000   1.0000
     1.0000   1.0000   1.0000   1.0000   1.0000   1.0000   1.0000   1.0000
     1.0000   1.0000   1.0000   1.0000   1.0000   1.0000   1.0000   1.0000
     1.0000   1.0000   1.0000   1.0000   1.0000   1.0000   1.0000   1.0000
     1.0000   1.0000   1.0000   1.0000   1.0000   1.0000   1.0000   1.0000
     1.0000   1.0000   1.0000   1.0000   1.0000   1.0000   1.0000   1.0000
     1.0000   1.0000   1.0000   1.0000

          k = 0.3750 0.2969 0.1751 ( 92140 PWs)   bands (ev):

   -41.1345 -41.1345 -41.1345 -41.1344 -40.7339 -40.7339 -40.7337 -40.7337
   -40.7336 -40.7335 -40.7334 -40.7334 -12.1180 -12.1106 -12.1009 -12.0977
    -9.1662  -9.1596  -9.1348  -9.1326  -9.0296  -9.0254  -8.9807  -8.9765
    -8.9429  -8.9198  -8.9115  -8.8946  -4.7128  -4.6619  -4.6400  -4.6122
    -1.8864  -1.8664  -1.8516  -1.8394  -1.6929  -1.6811  -1.6747  -1.6638
    -1.5138  -1.4983  -1.4727  -1.4689   0.3226   0.3671   0.3910   0.3992
     0.5355   0.5782   0.6250   0.6927   0.8872   0.9714   0.9984   1.0318
     1.3270   1.3442   1.4686   1.4772   1.5718   1.6219   1.6638   1.6652
     2.1237   2.1281   2.2061   2.2294   2.2771   2.3247   2.3680   2.3825
     2.4955   2.5110   2.5467   2.5737

     occupation numbers 
     1.0000   1.0000   1.0000   1.0000   1.0000   1.0000   1.0000   1.0000
     1.0000   1.0000   1.0000   1.0000   1.0000   1.0000   1.0000   1.0000
     1.0000   1.0000   1.0000   1.0000   1.0000   1.0000   1.0000   1.0000
     1.0000   1.0000   1.0000   1.0000   1.0000   1.0000   1.0000   1.0000
     1.0000   1.0000   1.0000   1.0000   1.0000   1.0000   1.0000   1.0000
     1.0000   1.0000   1.0000   1.0000   1.0000   1.0000   1.0000   1.0000
     1.0000   1.0000   1.0000   1.0000   1.0000   1.0000   1.0000   1.0000
     1.0000   1.0000   1.0000   1.0000   1.0000   1.0000   1.0000   1.0000
     1.0000   1.0000   1.0000   1.0000   1.0000   1.0000   1.0000   1.0000
     1.0000   1.0000   1.0000   1.0000

          k = 0.1250-0.0990-0.0584 ( 92094 PWs)   bands (ev):

   -41.1345 -41.1345 -41.1344 -41.1344 -40.7342 -40.7342 -40.7338 -40.7338
   -40.7335 -40.7335 -40.7330 -40.7330 -12.1913 -12.1492 -12.0993 -12.0812
    -9.2263  -9.1321  -9.0655  -9.0482  -9.0256  -8.9862  -8.9411  -8.9324
    -8.8927  -8.8858  -8.8834  -8.8508  -4.9978  -4.7485  -4.6506  -4.5387
    -2.0295  -2.0292  -1.9665  -1.9572  -1.9038  -1.8045  -1.7582  -1.6987
    -1.6627  -1.6472  -1.6384  -1.6290   0.4918   0.5346   0.5553   0.6166
     0.6551   0.7254   0.7689   0.7915   0.8866   0.9842   1.1032   1.1710
     1.2766   1.2815   1.5362   1.7030   1.7797   1.8675   1.8894   1.9538
     2.0119   2.0414   2.1176   2.1712   2.2118   2.2769   2.3615   2.3927
     2.4243   2.4513   2.6406   2.7641

     occupation numbers 
     1.0000   1.0000   1.0000   1.0000   1.0000   1.0000   1.0000   1.0000
     1.0000   1.0000   1.0000   1.0000   1.0000   1.0000   1.0000   1.0000
     1.0000   1.0000   1.0000   1.0000   1.0000   1.0000   1.0000   1.0000
     1.0000   1.0000   1.0000   1.0000   1.0000   1.0000   1.0000   1.0000
     1.0000   1.0000   1.0000   1.0000   1.0000   1.0000   1.0000   1.0000
     1.0000   1.0000   1.0000   1.0000   1.0000   1.0000   1.0000   1.0000
     1.0000   1.0000   1.0000   1.0000   1.0000   1.0000   1.0000   1.0000
     1.0000   1.0000   1.0000   1.0000   1.0000   1.0000   1.0000   1.0000
     1.0000   1.0000   1.0000   1.0000   1.0000   1.0000   1.0000   1.0000
     1.0000   1.0000   1.0000   1.0000

          k = 0.1250-0.0990-0.1751 ( 92104 PWs)   bands (ev):

   -41.1345 -41.1345 -41.1344 -41.1344 -40.7342 -40.7342 -40.7338 -40.7338
   -40.7335 -40.7335 -40.7330 -40.7330 -12.1812 -12.1645 -12.0912 -12.0844
    -9.2008  -9.1621  -9.0594  -9.0536  -9.0117  -8.9977  -8.9445  -8.9415
    -8.8850  -8.8833  -8.8731  -8.8578  -4.9447  -4.8534  -4.5847  -4.5502
    -2.0328  -2.0323  -1.9439  -1.9174  -1.9059  -1.8334  -1.7635  -1.7347
    -1.6568  -1.6539  -1.6372  -1.6305   0.4772   0.5239   0.5652   0.5834
     0.6911   0.6933   0.7486   0.7645   0.9341   0.9719   1.2009   1.2177
     1.3204   1.3550   1.4906   1.6879   1.8140   1.8340   1.8745   1.9264
     1.9952   2.0071   2.0900   2.1103   2.2735   2.2919   2.3590   2.3632
     2.4551   2.4560   2.6424   2.6972

     occupation numbers 
     1.0000   1.0000   1.0000   1.0000   1.0000   1.0000   1.0000   1.0000
     1.0000   1.0000   1.0000   1.0000   1.0000   1.0000   1.0000   1.0000
     1.0000   1.0000   1.0000   1.0000   1.0000   1.0000   1.0000   1.0000
     1.0000   1.0000   1.0000   1.0000   1.0000   1.0000   1.0000   1.0000
     1.0000   1.0000   1.0000   1.0000   1.0000   1.0000   1.0000   1.0000
     1.0000   1.0000   1.0000   1.0000   1.0000   1.0000   1.0000   1.0000
     1.0000   1.0000   1.0000   1.0000   1.0000   1.0000   1.0000   1.0000
     1.0000   1.0000   1.0000   1.0000   1.0000   1.0000   1.0000   1.0000
     1.0000   1.0000   1.0000   1.0000   1.0000   1.0000   1.0000   1.0000
     1.0000   1.0000   1.0000   1.0000

          k = 0.1250-0.2969-0.0584 ( 92092 PWs)   bands (ev):

   -41.1345 -41.1345 -41.1345 -41.1344 -40.7341 -40.7341 -40.7339 -40.7339
   -40.7333 -40.7333 -40.7332 -40.7331 -12.1591 -12.1335 -12.1134 -12.1128
    -9.2023  -9.1444  -9.1096  -9.0726  -9.0083  -8.9588  -8.9489  -8.9421
    -8.8962  -8.8845  -8.8716  -8.8608  -4.8384  -4.6852  -4.6481  -4.6451
    -2.0249  -2.0193  -2.0015  -1.9265  -1.9132  -1.8115  -1.7826  -1.7601
    -1.6423  -1.6348  -1.6332  -1.6174   0.4051   0.4784   0.5097   0.5885
     0.6413   0.7612   0.7760   0.8788   0.9805   1.0996   1.1847   1.2584
     1.4196   1.4199   1.5539   1.5918   1.6330   1.6878   1.7131   1.8564
     1.9458   2.0295   2.0893   2.1191   2.2034   2.2846   2.2870   2.3424
     2.3978   2.4201   2.4683   2.5784

     occupation numbers 
     1.0000   1.0000   1.0000   1.0000   1.0000   1.0000   1.0000   1.0000
     1.0000   1.0000   1.0000   1.0000   1.0000   1.0000   1.0000   1.0000
     1.0000   1.0000   1.0000   1.0000   1.0000   1.0000   1.0000   1.0000
     1.0000   1.0000   1.0000   1.0000   1.0000   1.0000   1.0000   1.0000
     1.0000   1.0000   1.0000   1.0000   1.0000   1.0000   1.0000   1.0000
     1.0000   1.0000   1.0000   1.0000   1.0000   1.0000   1.0000   1.0000
     1.0000   1.0000   1.0000   1.0000   1.0000   1.0000   1.0000   1.0000
     1.0000   1.0000   1.0000   1.0000   1.0000   1.0000   1.0000   1.0000
     1.0000   1.0000   1.0000   1.0000   1.0000   1.0000   1.0000   1.0000
     1.0000   1.0000   1.0000   1.0000

          k = 0.1250-0.2969-0.1751 ( 92055 PWs)   bands (ev):

   -41.1345 -41.1345 -41.1345 -41.1344 -40.7341 -40.7341 -40.7339 -40.7339
   -40.7333 -40.7333 -40.7331 -40.7331 -12.1525 -12.1422 -12.1124 -12.1118
    -9.1770  -9.1388  -9.1242  -9.0944  -8.9995  -8.9807  -8.9446  -8.9403
    -8.8912  -8.8864  -8.8640  -8.8595  -4.8018  -4.7433  -4.6382  -4.6320
    -2.0116  -2.0038  -1.9884  -1.9474  -1.8907  -1.8464  -1.7784  -1.7671
    -1.6471  -1.6421  -1.6346  -1.6302   0.4491   0.5055   0.5516   0.5712
     0.6395   0.7107   0.8374   0.8750   1.0075   1.0342   1.2038   1.2539
     1.3537   1.3651   1.5347   1.5617   1.7116   1.7118   1.7376   1.8131
     1.9724   2.0159   2.0188   2.0640   2.2595   2.2945   2.3300   2.3811
     2.4156   2.4629   2.4675   2.5303

     occupation numbers 
     1.0000   1.0000   1.0000   1.0000   1.0000   1.0000   1.0000   1.0000
     1.0000   1.0000   1.0000   1.0000   1.0000   1.0000   1.0000   1.0000
     1.0000   1.0000   1.0000   1.0000   1.0000   1.0000   1.0000   1.0000
     1.0000   1.0000   1.0000   1.0000   1.0000   1.0000   1.0000   1.0000
     1.0000   1.0000   1.0000   1.0000   1.0000   1.0000   1.0000   1.0000
     1.0000   1.0000   1.0000   1.0000   1.0000   1.0000   1.0000   1.0000
     1.0000   1.0000   1.0000   1.0000   1.0000   1.0000   1.0000   1.0000
     1.0000   1.0000   1.0000   1.0000   1.0000   1.0000   1.0000   1.0000
     1.0000   1.0000   1.0000   1.0000   1.0000   1.0000   1.0000   1.0000
     1.0000   1.0000   1.0000   1.0000

          k = 0.3750-0.0990-0.0584 ( 92135 PWs)   bands (ev):

   -41.1345 -41.1345 -41.1345 -41.1344 -40.7340 -40.7340 -40.7337 -40.7337
   -40.7336 -40.7335 -40.7332 -40.7332 -12.1378 -12.1122 -12.0910 -12.0910
    -9.2005  -9.1490  -9.1339  -9.1041  -8.9981  -8.9866  -8.9707  -8.9565
    -8.9564  -8.9522  -8.9259  -8.9051  -4.8332  -4.6784  -4.6336  -4.6301
    -1.8908  -1.8048  -1.7942  -1.7799  -1.6977  -1.6882  -1.6829  -1.6640
    -1.5910  -1.5333  -1.4982  -1.4879   0.3695   0.3891   0.4366   0.4642
     0.5093   0.5616   0.5946   0.6295   0.8369   0.9008   0.9271   1.0994
     1.4047   1.4670   1.4925   1.5001   1.5066   1.7081   1.7603   1.8058
     2.1497   2.1952   2.2957   2.3074   2.3128   2.3698   2.4011   2.4330
     2.4680   2.4966   2.6059   2.6087

     occupation numbers 
     1.0000   1.0000   1.0000   1.0000   1.0000   1.0000   1.0000   1.0000
     1.0000   1.0000   1.0000   1.0000   1.0000   1.0000   1.0000   1.0000
     1.0000   1.0000   1.0000   1.0000   1.0000   1.0000   1.0000   1.0000
     1.0000   1.0000   1.0000   1.0000   1.0000   1.0000   1.0000   1.0000
     1.0000   1.0000   1.0000   1.0000   1.0000   1.0000   1.0000   1.0000
     1.0000   1.0000   1.0000   1.0000   1.0000   1.0000   1.0000   1.0000
     1.0000   1.0000   1.0000   1.0000   1.0000   1.0000   1.0000   1.0000
     1.0000   1.0000   1.0000   1.0000   1.0000   1.0000   1.0000   1.0000
     1.0000   1.0000   1.0000   1.0000   1.0000   1.0000   1.0000   1.0000
     1.0000   1.0000   1.0000   1.0000

          k = 0.3750-0.0990-0.1751 ( 92178 PWs)   bands (ev):

   -41.1345 -41.1345 -41.1345 -41.1344 -40.7340 -40.7340 -40.7337 -40.7337
   -40.7336 -40.7335 -40.7332 -40.7332 -12.1313 -12.1210 -12.0901 -12.0898
    -9.1838  -9.1621  -9.1247  -9.1126  -9.0017  -8.9986  -8.9605  -8.9571
    -8.9550  -8.9529  -8.9198  -8.9109  -4.7962  -4.7372  -4.6215  -4.6178
    -1.8584  -1.8146  -1.7804  -1.7675  -1.7192  -1.7126  -1.6833  -1.6732
    -1.5783  -1.5533  -1.5032  -1.4957   0.3751   0.4015   0.4250   0.4585
     0.5503   0.5879   0.6091   0.6420   0.8241   0.8507   0.9750   1.0537
     1.4428   1.4730   1.4732   1.5020   1.5814   1.6928   1.7503   1.7644
     2.1613   2.1838   2.2906   2.2933   2.3195   2.3483   2.3908   2.4020
     2.4945   2.5235   2.5727   2.5876

     occupation numbers 
     1.0000   1.0000   1.0000   1.0000   1.0000   1.0000   1.0000   1.0000
     1.0000   1.0000   1.0000   1.0000   1.0000   1.0000   1.0000   1.0000
     1.0000   1.0000   1.0000   1.0000   1.0000   1.0000   1.0000   1.0000
     1.0000   1.0000   1.0000   1.0000   1.0000   1.0000   1.0000   1.0000
     1.0000   1.0000   1.0000   1.0000   1.0000   1.0000   1.0000   1.0000
     1.0000   1.0000   1.0000   1.0000   1.0000   1.0000   1.0000   1.0000
     1.0000   1.0000   1.0000   1.0000   1.0000   1.0000   1.0000   1.0000
     1.0000   1.0000   1.0000   1.0000   1.0000   1.0000   1.0000   1.0000
     1.0000   1.0000   1.0000   1.0000   1.0000   1.0000   1.0000   1.0000
     1.0000   1.0000   1.0000   1.0000

          k = 0.3750-0.2969-0.0584 ( 92109 PWs)   bands (ev):

   -41.1345 -41.1345 -41.1345 -41.1344 -40.7339 -40.7339 -40.7337 -40.7337
   -40.7336 -40.7335 -40.7334 -40.7334 -12.1229 -12.1048 -12.1035 -12.0960
    -9.1735  -9.1573  -9.1425  -9.1362  -9.0096  -9.0070  -8.9843  -8.9801
    -8.9574  -8.9326  -8.9062  -8.8868  -4.7468  -4.6623  -4.6186  -4.6003
    -1.9042  -1.8698  -1.8556  -1.8427  -1.6876  -1.6732  -1.6562  -1.6476
    -1.5238  -1.4848  -1.4811  -1.4731   0.3184   0.3674   0.3934   0.4219
     0.5164   0.5513   0.6354   0.6881   0.8161   0.9927   1.0139   1.0496
     1.3722   1.3880   1.4428   1.4591   1.5535   1.6544   1.6639   1.6799
     2.1094   2.1164   2.1623   2.1631   2.3077   2.3284   2.3499   2.4306
     2.4810   2.5096   2.5336   2.6079

     occupation numbers 
     1.0000   1.0000   1.0000   1.0000   1.0000   1.0000   1.0000   1.0000
     1.0000   1.0000   1.0000   1.0000   1.0000   1.0000   1.0000   1.0000
     1.0000   1.0000   1.0000   1.0000   1.0000   1.0000   1.0000   1.0000
     1.0000   1.0000   1.0000   1.0000   1.0000   1.0000   1.0000   1.0000
     1.0000   1.0000   1.0000   1.0000   1.0000   1.0000   1.0000   1.0000
     1.0000   1.0000   1.0000   1.0000   1.0000   1.0000   1.0000   1.0000
     1.0000   1.0000   1.0000   1.0000   1.0000   1.0000   1.0000   1.0000
     1.0000   1.0000   1.0000   1.0000   1.0000   1.0000   1.0000   1.0000
     1.0000   1.0000   1.0000   1.0000   1.0000   1.0000   1.0000   1.0000
     1.0000   1.0000   1.0000   1.0000

          k = 0.3750-0.2969-0.1751 ( 92140 PWs)   bands (ev):

   -41.1345 -41.1345 -41.1345 -41.1344 -40.7339 -40.7339 -40.7337 -40.7337
   -40.7336 -40.7335 -40.7334 -40.7334 -12.1180 -12.1106 -12.1009 -12.0977
    -9.1662  -9.1596  -9.1348  -9.1326  -9.0296  -9.0254  -8.9807  -8.9765
    -8.9429  -8.9198  -8.9115  -8.8946  -4.7128  -4.6619  -4.6400  -4.6122
    -1.8864  -1.8664  -1.8516  -1.8394  -1.6929  -1.6811  -1.6747  -1.6638
    -1.5138  -1.4983  -1.4727  -1.4689   0.3226   0.3671   0.3910   0.3992
     0.5355   0.5782   0.6250   0.6927   0.8872   0.9714   0.9984   1.0318
     1.3270   1.3442   1.4686   1.4772   1.5718   1.6219   1.6638   1.6652
     2.1237   2.1281   2.2061   2.2294   2.2771   2.3247   2.3680   2.3825
     2.4955   2.5110   2.5467   2.5737

     occupation numbers 
     1.0000   1.0000   1.0000   1.0000   1.0000   1.0000   1.0000   1.0000
     1.0000   1.0000   1.0000   1.0000   1.0000   1.0000   1.0000   1.0000
     1.0000   1.0000   1.0000   1.0000   1.0000   1.0000   1.0000   1.0000
     1.0000   1.0000   1.0000   1.0000   1.0000   1.0000   1.0000   1.0000
     1.0000   1.0000   1.0000   1.0000   1.0000   1.0000   1.0000   1.0000
     1.0000   1.0000   1.0000   1.0000   1.0000   1.0000   1.0000   1.0000
     1.0000   1.0000   1.0000   1.0000   1.0000   1.0000   1.0000   1.0000
     1.0000   1.0000   1.0000   1.0000   1.0000   1.0000   1.0000   1.0000
     1.0000   1.0000   1.0000   1.0000   1.0000   1.0000   1.0000   1.0000
     1.0000   1.0000   1.0000   1.0000

     highest occupied level (ev):     2.7641

!    total energy              =    -569.89372109 Ry
     estimated scf accuracy    <          3.5E-11 Ry

     The total energy is the sum of the following terms:
     one-electron contribution =    -155.56802124 Ry
     hartree contribution      =     115.63556495 Ry
     xc contribution           =    -141.60981200 Ry
     ewald contribution        =    -388.35145280 Ry

     convergence has been achieved in  16 iterations

     Forces acting on atoms (cartesian axes, Ry/au):

     atom    1 type  1   force =    -0.02094088   -0.00473664   -0.00920997
     atom    2 type  1   force =    -0.02093780    0.00473705    0.00921009
     atom    3 type  1   force =    -0.02093780   -0.00473705    0.00921009
     atom    4 type  1   force =    -0.02094088    0.00473664   -0.00920997
     atom    5 type  1   force =    -0.00158918   -0.00000000   -0.00189554
     atom    6 type  1   force =    -0.00158777   -0.00000000    0.00189453
     atom    7 type  1   force =    -0.02094070   -0.00473672   -0.00920972
     atom    8 type  1   force =    -0.02093786    0.00473696    0.00920975
     atom    9 type  1   force =    -0.02093786   -0.00473696    0.00920975
     atom   10 type  1   force =    -0.02094070    0.00473672   -0.00920972
     atom   11 type  1   force =    -0.00158938   -0.00000000   -0.00189476
     atom   12 type  1   force =    -0.00158763   -0.00000000    0.00189527
     atom   13 type  2   force =    -0.00456683   -0.00000000   -0.03416767
     atom   14 type  2   force =    -0.00456688   -0.00000000    0.03416735
     atom   15 type  2   force =    -0.00456658   -0.00000000   -0.03416751
     atom   16 type  2   force =    -0.00456672   -0.00000000    0.03416769
     atom   17 type  3   force =     0.01016988    0.00381856   -0.00089527
     atom   18 type  3   force =     0.01016927   -0.00381767    0.00089446
     atom   19 type  3   force =     0.01016927    0.00381767    0.00089446
     atom   20 type  3   force =     0.01016988   -0.00381856   -0.00089527
     atom   21 type  3   force =    -0.01173571   -0.00000000    0.04927262
     atom   22 type  3   force =    -0.01173529   -0.00000000   -0.04927203
     atom   23 type  3   force =     0.03943039    0.00000000   -0.00065595
     atom   24 type  3   force =     0.03943018    0.00000000    0.00065577
     atom   25 type  3   force =     0.01016981    0.00381845   -0.00089477
     atom   26 type  3   force =     0.01016852   -0.00381943    0.00089573
     atom   27 type  3   force =     0.01016852    0.00381943    0.00089573
     atom   28 type  3   force =     0.01016981   -0.00381845   -0.00089477
     atom   29 type  3   force =    -0.01173556   -0.00000000    0.04927312
     atom   30 type  3   force =    -0.01173589   -0.00000000   -0.04927375
     atom   31 type  3   force =     0.03943077    0.00000000   -0.00065581
     atom   32 type  3   force =     0.03943162    0.00000000    0.00065606
     The non-local contrib.  to forces
     atom    1 type  1   force =    -0.02322076   -0.01542142   -0.00946957
     atom    2 type  1   force =    -0.02321847    0.01542191    0.00946940
     atom    3 type  1   force =    -0.02321847   -0.01542191    0.00946940
     atom    4 type  1   force =    -0.02322076    0.01542142   -0.00946957
     atom    5 type  1   force =    -0.00764787   -0.00000000    0.03216302
     atom    6 type  1   force =    -0.00764679   -0.00000000   -0.03216360
     atom    7 type  1   force =    -0.02322068   -0.01542164   -0.00946920
     atom    8 type  1   force =    -0.02321854    0.01542180    0.00946952
     atom    9 type  1   force =    -0.02321854   -0.01542180    0.00946952
     atom   10 type  1   force =    -0.02322068    0.01542164   -0.00946920
     atom   11 type  1   force =    -0.00764810   -0.00000000    0.03216357
     atom   12 type  1   force =    -0.00764663   -0.00000000   -0.03216334
     atom   13 type  2   force =    -0.03262338   -0.00000000   -0.09207432
     atom   14 type  2   force =    -0.03262285   -0.00000000    0.09207473
     atom   15 type  2   force =    -0.03262402   -0.00000000   -0.09207514
     atom   16 type  2   force =    -0.03262373   -0.00000000    0.09207449
     atom   17 type  3   force =     0.06417483   -0.07732689    0.07318901
     atom   18 type  3   force =     0.06417327    0.07732485   -0.07318804
     atom   19 type  3   force =     0.06417327   -0.07732485   -0.07318804
     atom   20 type  3   force =     0.06417483    0.07732689    0.07318901
     atom   21 type  3   force =     0.01860656    0.00000000   -0.00814930
     atom   22 type  3   force =     0.01860701    0.00000000    0.00814916
     atom   23 type  3   force =    -0.05702968   -0.00000000   -0.00013095
     atom   24 type  3   force =    -0.05702924   -0.00000000    0.00013078
     atom   25 type  3   force =     0.06417490   -0.07732686    0.07318920
     atom   26 type  3   force =     0.06417445    0.07732785   -0.07319003
     atom   27 type  3   force =     0.06417445   -0.07732785   -0.07319003
     atom   28 type  3   force =     0.06417490    0.07732686    0.07318920
     atom   29 type  3   force =     0.01860664    0.00000000   -0.00815063
     atom   30 type  3   force =     0.01860776    0.00000000    0.00815102
     atom   31 type  3   force =    -0.05703030   -0.00000000   -0.00013028
     atom   32 type  3   force =    -0.05703174   -0.00000000    0.00013023
     The ionic contribution  to forces
     atom    1 type  1   force =    -0.20216023   -0.21588750    0.02148364
     atom    2 type  1   force =    -0.20216026    0.21588750   -0.02148364
     atom    3 type  1   force =    -0.20216026   -0.21588750   -0.02148364
     atom    4 type  1   force =    -0.20216023    0.21588750    0.02148364
     atom    5 type  1   force =    -0.01010308    0.00000000    0.52796313
     atom    6 type  1   force =    -0.01010307    0.00000000   -0.52796313
     atom    7 type  1   force =    -0.20216023   -0.21588750    0.02148364
     atom    8 type  1   force =    -0.20216026    0.21588750   -0.02148364
     atom    9 type  1   force =    -0.20216026   -0.21588750   -0.02148364
     atom   10 type  1   force =    -0.20216023    0.21588750    0.02148364
     atom   11 type  1   force =    -0.01010308    0.00000000    0.52796313
     atom   12 type  1   force =    -0.01010307    0.00000000   -0.52796313
     atom   13 type  2   force =    -0.11301641   -0.00000000   -0.20696876
     atom   14 type  2   force =    -0.11301642    0.00000000    0.20696876
     atom   15 type  2   force =    -0.11301641   -0.00000000   -0.20696876
     atom   16 type  2   force =    -0.11301642    0.00000000    0.20696876
     atom   17 type  3   force =    -0.56432524    2.43089140   -1.37608182
     atom   18 type  3   force =    -0.56432527   -2.43089140    1.37608182
     atom   19 type  3   force =    -0.56432527    2.43089140    1.37608182
     atom   20 type  3   force =    -0.56432524   -2.43089140   -1.37608182
     atom   21 type  3   force =    -1.04602225   -0.00000000    3.25743597
     atom   22 type  3   force =    -1.04602226    0.00000000   -3.25743598
     atom   23 type  3   force =     2.70211274    0.00000000   -0.42706133
     atom   24 type  3   force =     2.70211275    0.00000000    0.42706132
     atom   25 type  3   force =    -0.56432524    2.43089140   -1.37608182
     atom   26 type  3   force =    -0.56432527   -2.43089140    1.37608182
     atom   27 type  3   force =    -0.56432527    2.43089140    1.37608182
     atom   28 type  3   force =    -0.56432524   -2.43089140   -1.37608182
     atom   29 type  3   force =    -1.04602225   -0.00000000    3.25743597
     atom   30 type  3   force =    -1.04602226    0.00000000   -3.25743598
     atom   31 type  3   force =     2.70211274    0.00000000   -0.42706133
     atom   32 type  3   force =     2.70211275    0.00000000    0.42706132
     The local contribution  to forces
     atom    1 type  1   force =     0.20443987    0.22657296   -0.02122399
     atom    2 type  1   force =     0.20444082   -0.22657189    0.02122300
     atom    3 type  1   force =     0.20444082    0.22657189    0.02122300
     atom    4 type  1   force =     0.20443987   -0.22657296   -0.02122399
     atom    5 type  1   force =     0.01616206   -0.00000000   -0.56202210
     atom    6 type  1   force =     0.01616191   -0.00000000    0.56202208
     atom    7 type  1   force =     0.20444072    0.22657237   -0.02122345
     atom    8 type  1   force =     0.20444072   -0.22657305    0.02122440
     atom    9 type  1   force =     0.20444072    0.22657305    0.02122440
     atom   10 type  1   force =     0.20444072   -0.22657237   -0.02122345
     atom   11 type  1   force =     0.01616129    0.00000000   -0.56202076
     atom   12 type  1   force =     0.01616265   -0.00000000    0.56202063
     atom   13 type  2   force =     0.13925011    0.00000000    0.26059801
     atom   14 type  2   force =     0.13924932    0.00000000   -0.26059678
     atom   15 type  2   force =     0.13925162   -0.00000000    0.26059631
     atom   16 type  2   force =     0.13924995    0.00000000   -0.26059703
     atom   17 type  3   force =     0.51033116   -2.34738554    1.30116980
     atom   18 type  3   force =     0.51033227    2.34739246   -1.30117568
     atom   19 type  3   force =     0.51033227   -2.34739246   -1.30117568
     atom   20 type  3   force =     0.51033116    2.34738554    1.30116980
     atom   21 type  3   force =     1.01414962    0.00000000   -3.19478253
     atom   22 type  3   force =     1.01415058    0.00000000    3.19478873
     atom   23 type  3   force =    -2.60167819   -0.00000000    0.42607048
     atom   24 type  3   force =    -2.60167995   -0.00000000   -0.42607148
     atom   25 type  3   force =     0.51033069   -2.34738649    1.30117430
     atom   26 type  3   force =     0.51032747    2.34738063   -1.30116797
     atom   27 type  3   force =     0.51032747   -2.34738063   -1.30116797
     atom   28 type  3   force =     0.51033069    2.34738649    1.30117430
     atom   29 type  3   force =     1.01415106   -0.00000000   -3.19478125
     atom   30 type  3   force =     1.01414636    0.00000000    3.19477407
     atom   31 type  3   force =    -2.60167579   -0.00000000    0.42607266
     atom   32 type  3   force =    -2.60166943    0.00000000   -0.42607097
     The core correction contribution to forces
     atom    1 type  1   force =     0.00000000    0.00000000    0.00000000
     atom    2 type  1   force =     0.00000000    0.00000000    0.00000000
     atom    3 type  1   force =     0.00000000    0.00000000    0.00000000
     atom    4 type  1   force =     0.00000000    0.00000000    0.00000000
     atom    5 type  1   force =     0.00000000    0.00000000    0.00000000
     atom    6 type  1   force =     0.00000000    0.00000000    0.00000000
     atom    7 type  1   force =     0.00000000    0.00000000    0.00000000
     atom    8 type  1   force =     0.00000000    0.00000000    0.00000000
     atom    9 type  1   force =     0.00000000    0.00000000    0.00000000
     atom   10 type  1   force =     0.00000000    0.00000000    0.00000000
     atom   11 type  1   force =     0.00000000    0.00000000    0.00000000
     atom   12 type  1   force =     0.00000000    0.00000000    0.00000000
     atom   13 type  2   force =     0.00182297    0.00000000    0.00427789
     atom   14 type  2   force =     0.00182294    0.00000000   -0.00427789
     atom   15 type  2   force =     0.00182300    0.00000000    0.00427791
     atom   16 type  2   force =     0.00182297   -0.00000000   -0.00427789
     atom   17 type  3   force =    -0.00001027   -0.00235971    0.00082500
     atom   18 type  3   force =    -0.00001024    0.00235977   -0.00082504
     atom   19 type  3   force =    -0.00001024   -0.00235977   -0.00082504
     atom   20 type  3   force =    -0.00001027    0.00235971    0.00082500
     atom   21 type  3   force =     0.00152966   -0.00000000   -0.00523082
     atom   22 type  3   force =     0.00152966   -0.00000000    0.00523085
     atom   23 type  3   force =    -0.00397516    0.00000000    0.00046382
     atom   24 type  3   force =    -0.00397517    0.00000000   -0.00046382
     atom   25 type  3   force =    -0.00001027   -0.00235971    0.00082501
     atom   26 type  3   force =    -0.00001028    0.00235968   -0.00082497
     atom   27 type  3   force =    -0.00001028   -0.00235968   -0.00082497
     atom   28 type  3   force =    -0.00001027    0.00235971    0.00082501
     atom   29 type  3   force =     0.00152967   -0.00000000   -0.00523080
     atom   30 type  3   force =     0.00152964   -0.00000000    0.00523076
     atom   31 type  3   force =    -0.00397514    0.00000000    0.00046381
     atom   32 type  3   force =    -0.00397509   -0.00000000   -0.00046380
     The Hubbard contrib.    to forces
     atom    1 type  1   force =     0.00000000    0.00000000    0.00000000
     atom    2 type  1   force =     0.00000000    0.00000000    0.00000000
     atom    3 type  1   force =     0.00000000    0.00000000    0.00000000
     atom    4 type  1   force =     0.00000000    0.00000000    0.00000000
     atom    5 type  1   force =     0.00000000    0.00000000    0.00000000
     atom    6 type  1   force =     0.00000000    0.00000000    0.00000000
     atom    7 type  1   force =     0.00000000    0.00000000    0.00000000
     atom    8 type  1   force =     0.00000000    0.00000000    0.00000000
     atom    9 type  1   force =     0.00000000    0.00000000    0.00000000
     atom   10 type  1   force =     0.00000000    0.00000000    0.00000000
     atom   11 type  1   force =     0.00000000    0.00000000    0.00000000
     atom   12 type  1   force =     0.00000000    0.00000000    0.00000000
     atom   13 type  2   force =     0.00000000    0.00000000    0.00000000
     atom   14 type  2   force =     0.00000000    0.00000000    0.00000000
     atom   15 type  2   force =     0.00000000    0.00000000    0.00000000
     atom   16 type  2   force =     0.00000000    0.00000000    0.00000000
     atom   17 type  3   force =     0.00000000    0.00000000    0.00000000
     atom   18 type  3   force =     0.00000000    0.00000000    0.00000000
     atom   19 type  3   force =     0.00000000    0.00000000    0.00000000
     atom   20 type  3   force =     0.00000000    0.00000000    0.00000000
     atom   21 type  3   force =     0.00000000    0.00000000    0.00000000
     atom   22 type  3   force =     0.00000000    0.00000000    0.00000000
     atom   23 type  3   force =     0.00000000    0.00000000    0.00000000
     atom   24 type  3   force =     0.00000000    0.00000000    0.00000000
     atom   25 type  3   force =     0.00000000    0.00000000    0.00000000
     atom   26 type  3   force =     0.00000000    0.00000000    0.00000000
     atom   27 type  3   force =     0.00000000    0.00000000    0.00000000
     atom   28 type  3   force =     0.00000000    0.00000000    0.00000000
     atom   29 type  3   force =     0.00000000    0.00000000    0.00000000
     atom   30 type  3   force =     0.00000000    0.00000000    0.00000000
     atom   31 type  3   force =     0.00000000    0.00000000    0.00000000
     atom   32 type  3   force =     0.00000000    0.00000000    0.00000000
     The SCF correction term to forces
     atom    1 type  1   force =     0.00000023   -0.00000068   -0.00000004
     atom    2 type  1   force =     0.00000011   -0.00000048    0.00000134
     atom    3 type  1   force =     0.00000011    0.00000048    0.00000134
     atom    4 type  1   force =     0.00000023    0.00000068   -0.00000004
     atom    5 type  1   force =    -0.00000029    0.00000000    0.00000043
     atom    6 type  1   force =     0.00000018    0.00000000   -0.00000081
     atom    7 type  1   force =    -0.00000052    0.00000005   -0.00000069
     atom    8 type  1   force =     0.00000020    0.00000071   -0.00000051
     atom    9 type  1   force =     0.00000020   -0.00000071   -0.00000051
     atom   10 type  1   force =    -0.00000052   -0.00000005   -0.00000069
     atom   11 type  1   force =     0.00000051    0.00000000   -0.00000069
     atom   12 type  1   force =    -0.00000058    0.00000000    0.00000112
     atom   13 type  2   force =    -0.00000012   -0.00000000   -0.00000047
     atom   14 type  2   force =     0.00000013   -0.00000000   -0.00000146
     atom   15 type  2   force =    -0.00000078   -0.00000000    0.00000219
     atom   16 type  2   force =     0.00000051   -0.00000000   -0.00000063
     atom   17 type  3   force =    -0.00000060   -0.00000069    0.00000275
     atom   18 type  3   force =    -0.00000076   -0.00000335    0.00000140
     atom   19 type  3   force =    -0.00000076    0.00000335    0.00000140
     atom   20 type  3   force =    -0.00000060    0.00000069    0.00000275
     atom   21 type  3   force =     0.00000069   -0.00000000   -0.00000069
     atom   22 type  3   force =    -0.00000029    0.00000000   -0.00000478
     atom   23 type  3   force =     0.00000067    0.00000000    0.00000204
     atom   24 type  3   force =     0.00000178    0.00000000   -0.00000103
     atom   25 type  3   force =    -0.00000026    0.00000011   -0.00000145
     atom   26 type  3   force =     0.00000213    0.00000382   -0.00000311
     atom   27 type  3   force =     0.00000213   -0.00000382   -0.00000311
     atom   28 type  3   force =    -0.00000026   -0.00000011   -0.00000145
     atom   29 type  3   force =    -0.00000068    0.00000000   -0.00000016
     atom   30 type  3   force =     0.00000261    0.00000000    0.00000638
     atom   31 type  3   force =    -0.00000074    0.00000000   -0.00000067
     atom   32 type  3   force =    -0.00000487    0.00000000   -0.00000070

     Total force =     0.163024     Total SCF correction =     0.000015


     Computing stress (Cartesian axis) and pressure

          total   stress  (Ry/bohr**3)                   (kbar)     P=       17.89
   0.00027460   0.00000000   0.00000000           40.40        0.00        0.00
   0.00000000  -0.00004532   0.00000000            0.00       -6.67        0.00
   0.00000000   0.00000000   0.00013556            0.00        0.00       19.94

     kinetic stress (kbar)   5210.62     -0.00      0.00
                               -0.00   5215.10      0.00
                                0.00      0.00   5197.36

     local   stress (kbar)  -4279.38     -0.00      0.00
                               -0.00  -2826.80     -0.00
                                0.00     -0.00  -3213.81

     nonloc. stress (kbar)   3015.37     -0.00      0.00
                               -0.00   2986.21      0.00
                                0.00      0.00   3010.45

     hartree stress (kbar)   1662.11      0.00     -0.00
                                0.00   1174.25     -0.00
                               -0.00     -0.00   1262.71

     exc-cor stress (kbar)  -1030.12      0.00      0.00
                                0.00  -1031.54     -0.00
                                0.00     -0.00  -1031.01

     corecor stress (kbar)   -500.80     -0.00      0.00
                               -0.00   -499.92      0.00
                                0.00      0.00   -500.77

     ewald   stress (kbar)  -4037.40     -0.00      0.00
                               -0.00  -5023.97     -0.00
                                0.00     -0.00  -4704.98

     hubbard stress (kbar)      0.00      0.00      0.00
                                0.00      0.00      0.00
                                0.00      0.00      0.00

     DFT-D   stress (kbar)      0.00      0.00      0.00
                                0.00      0.00      0.00
                                0.00      0.00      0.00

     XDM     stress (kbar)      0.00      0.00      0.00
                                0.00      0.00      0.00
                                0.00      0.00      0.00

     dft-nl  stress (kbar)      0.00      0.00      0.00
                                0.00      0.00      0.00
                                0.00      0.00      0.00

     TS-vdW  stress (kbar)      0.00      0.00      0.00
                                0.00      0.00      0.00
                                0.00      0.00      0.00


                                0.00      0.00      0.00
                                0.00      0.00      0.00


                                0.00      0.00      0.00


     BFGS Geometry Optimization
     Energy error            =      0.0E+00 Ry
     Gradient error          =      4.9E-02 Ry/Bohr
     Cell gradient error     =      4.0E+01 kbar

     number of scf cycles    =   1
     number of bfgs steps    =   0

     enthalpy           new  =    -569.8937210877 Ry

     new trust radius        =       0.0884482507 bohr
     new conv_thr            =            1.0E-10 Ry

     new unit-cell volume =   4187.76299 a.u.^3 (   620.56245 Ang^3 )
     density =      1.92698 g/cm^3

CELL_PARAMETERS (angstrom)
   6.145551731   0.000000000   0.000000060
  -0.000000000   7.699556245  -0.000000000
   0.000000129   0.000000000  13.114716844

ATOMIC_POSITIONS (crystal)
Li            0.0218844564        0.2498748283        0.2541771194
Li            0.5218847256        0.2501251998        0.4240228851
Li            0.5218847256        0.7498748002        0.4240228851
Li            0.0218844564        0.7501251717        0.2541771194
Li            0.4916622205        0.0000000000        0.1615232560
Li            0.9916623424        0.5000000000        0.0166767029
Li            0.0218844718        0.2498748228        0.7541771296
Li            0.5218847197        0.2501251941        0.9240228714
Li            0.5218847197        0.7498748059        0.9240228714
Li            0.0218844718        0.7501251772        0.7541771296
Li            0.4916622035        0.0000000000        0.6615232872
Li            0.9916623551        0.5000000000        0.5166767328
P            -0.0003959374        0.0000000000       -0.0013833337
P             0.4996040581        0.5000000000        0.1795833203
P            -0.0003959159        0.0000000000        0.4986166727
P             0.4996040725        0.5000000000        0.6795833344
S             0.8923817126        0.2187621466        0.4249137536
S             0.3923816598        0.2812379146        0.2532862132
S             0.3923816598        0.7187620854        0.2532862132
S             0.8923817126        0.7812378534        0.4249137536
S             0.8927825318        0.0000000000        0.1452448818
S             0.3927825682        0.5000000000        0.0329551420
S             0.3322185548       -0.0000000000        0.4915234427
S             0.8322185365        0.5000000000        0.1866765496
S             0.8923817062        0.2187621386        0.9249137741
S             0.3923815941        0.2812377942        0.7532862648
S             0.3923815941        0.7187622058        0.7532862648
S             0.8923817062        0.7812378614        0.9249137741
S             0.8927825449        0.0000000000        0.6452449018
S             0.3927825164        0.5000000000        0.5329550724
S             0.3322185882       -0.0000000000        0.9915234482
S             0.8322186615        0.5000000000        0.6866765615



     Writing config-only to output data dir ./tmp1/pwscf.save/
     NEW-OLD atomic charge density approx. for the potential
     extrapolated charge  153.37508, renormalised to  152.00000

     total cpu time spent up to now is      284.5 secs

     per-process dynamical memory:    15.1 Mb

     Self-consistent Calculation

     iteration #  1     ecut=   120.00 Ry     beta= 0.70
     Davidson diagonalization with overlap

---- Real-time Memory Report at c_bands before calling an iterative solver
           184 MiB given to the printing process from OS
            14 MiB allocation reported by mallinfo(arena+hblkhd)
        232107 MiB available memory on the node where the printing process lives
------------------
     ethr =  1.00E-06,  avg # of iterations = 10.0

     total cpu time spent up to now is      322.2 secs

     total energy              =    -569.89396731 Ry
     estimated scf accuracy    <       0.02659305 Ry

     iteration #  2     ecut=   120.00 Ry     beta= 0.70
     Davidson diagonalization with overlap

---- Real-time Memory Report at c_bands before calling an iterative solver
           184 MiB given to the printing process from OS
            14 MiB allocation reported by mallinfo(arena+hblkhd)
        231482 MiB available memory on the node where the printing process lives
------------------
     ethr =  1.75E-05,  avg # of iterations =  4.0

     total cpu time spent up to now is      339.2 secs

     total energy              =    -569.91150937 Ry
     estimated scf accuracy    <       0.06417673 Ry

     iteration #  3     ecut=   120.00 Ry     beta= 0.70
     Davidson diagonalization with overlap

---- Real-time Memory Report at c_bands before calling an iterative solver
           184 MiB given to the printing process from OS
            14 MiB allocation reported by mallinfo(arena+hblkhd)
        231391 MiB available memory on the node where the printing process lives
------------------
     ethr =  1.75E-05,  avg # of iterations =  3.0

     total cpu time spent up to now is      354.5 secs

     total energy              =    -569.91649985 Ry
     estimated scf accuracy    <       0.00641715 Ry

     iteration #  4     ecut=   120.00 Ry     beta= 0.70
     Davidson diagonalization with overlap

---- Real-time Memory Report at c_bands before calling an iterative solver
           184 MiB given to the printing process from OS
            14 MiB allocation reported by mallinfo(arena+hblkhd)
        231333 MiB available memory on the node where the printing process lives
------------------
     ethr =  4.22E-06,  avg # of iterations =  4.0

     total cpu time spent up to now is      368.4 secs

     total energy              =    -569.91787922 Ry
     estimated scf accuracy    <       0.00046930 Ry

     iteration #  5     ecut=   120.00 Ry     beta= 0.70
     Davidson diagonalization with overlap

---- Real-time Memory Report at c_bands before calling an iterative solver
           184 MiB given to the printing process from OS
            14 MiB allocation reported by mallinfo(arena+hblkhd)
        231333 MiB available memory on the node where the printing process lives
------------------
     ethr =  3.09E-07,  avg # of iterations =  4.1

     total cpu time spent up to now is      384.3 secs

     total energy              =    -569.91798500 Ry
     estimated scf accuracy    <       0.00015469 Ry

     iteration #  6     ecut=   120.00 Ry     beta= 0.70
     Davidson diagonalization with overlap

---- Real-time Memory Report at c_bands before calling an iterative solver
           184 MiB given to the printing process from OS
            14 MiB allocation reported by mallinfo(arena+hblkhd)
        231321 MiB available memory on the node where the printing process lives
------------------
     ethr =  1.02E-07,  avg # of iterations =  2.0

     total cpu time spent up to now is      397.3 secs

     total energy              =    -569.91796007 Ry
     estimated scf accuracy    <       0.00008663 Ry

     iteration #  7     ecut=   120.00 Ry     beta= 0.70
     Davidson diagonalization with overlap

---- Real-time Memory Report at c_bands before calling an iterative solver
           184 MiB given to the printing process from OS
            14 MiB allocation reported by mallinfo(arena+hblkhd)
        231320 MiB available memory on the node where the printing process lives
------------------
     ethr =  5.70E-08,  avg # of iterations =  2.1

     total cpu time spent up to now is      410.3 secs

     total energy              =    -569.91798006 Ry
     estimated scf accuracy    <       0.00000044 Ry

     iteration #  8     ecut=   120.00 Ry     beta= 0.70
     Davidson diagonalization with overlap

---- Real-time Memory Report at c_bands before calling an iterative solver
           184 MiB given to the printing process from OS
            14 MiB allocation reported by mallinfo(arena+hblkhd)
        231260 MiB available memory on the node where the printing process lives
------------------
     ethr =  2.91E-10,  avg # of iterations =  9.0

     total cpu time spent up to now is      446.0 secs

     total energy              =    -569.91798094 Ry
     estimated scf accuracy    <       0.00000601 Ry

     iteration #  9     ecut=   120.00 Ry     beta= 0.70
     Davidson diagonalization with overlap

---- Real-time Memory Report at c_bands before calling an iterative solver
           184 MiB given to the printing process from OS
            14 MiB allocation reported by mallinfo(arena+hblkhd)
        231245 MiB available memory on the node where the printing process lives
------------------
     ethr =  2.91E-10,  avg # of iterations =  4.8

     total cpu time spent up to now is      462.8 secs

     total energy              =    -569.91798150 Ry
     estimated scf accuracy    <       0.00000032 Ry

     iteration # 10     ecut=   120.00 Ry     beta= 0.70
     Davidson diagonalization with overlap

---- Real-time Memory Report at c_bands before calling an iterative solver
           184 MiB given to the printing process from OS
            14 MiB allocation reported by mallinfo(arena+hblkhd)
        231218 MiB available memory on the node where the printing process lives
------------------
     ethr =  2.12E-10,  avg # of iterations =  3.2

     total cpu time spent up to now is      476.5 secs

     total energy              =    -569.91798162 Ry
     estimated scf accuracy    <       0.00000004 Ry

     iteration # 11     ecut=   120.00 Ry     beta= 0.70
     Davidson diagonalization with overlap

---- Real-time Memory Report at c_bands before calling an iterative solver
           184 MiB given to the printing process from OS
            14 MiB allocation reported by mallinfo(arena+hblkhd)
        231182 MiB available memory on the node where the printing process lives
------------------
     ethr =  2.85E-11,  avg # of iterations =  2.1

     total cpu time spent up to now is      488.0 secs

     total energy              =    -569.91798161 Ry
     estimated scf accuracy    <       0.00000003 Ry

     iteration # 12     ecut=   120.00 Ry     beta= 0.70
[...]
     atom   19 type  3   force =     0.04128091   -0.08534389   -0.07371665
     atom   20 type  3   force =     0.04128062    0.08534269    0.07371788
     atom   21 type  3   force =     0.04559609    0.00000000   -0.11995420
     atom   22 type  3   force =     0.04559614    0.00000000    0.11995383
     atom   23 type  3   force =    -0.13229686   -0.00000000    0.01093620
     atom   24 type  3   force =    -0.13229604   -0.00000000   -0.01093505
     atom   25 type  3   force =     0.04128052   -0.08534260    0.07371772
     atom   26 type  3   force =     0.04128084    0.08534378   -0.07371649
     atom   27 type  3   force =     0.04128084   -0.08534378   -0.07371649
     atom   28 type  3   force =     0.04128052    0.08534260    0.07371772
     atom   29 type  3   force =     0.04559613    0.00000000   -0.11995419
     atom   30 type  3   force =     0.04559613    0.00000000    0.11995386
     atom   31 type  3   force =    -0.13229675   -0.00000000    0.01093610
     atom   32 type  3   force =    -0.13229595   -0.00000000   -0.01093491
     The ionic contribution  to forces
     atom    1 type  1   force =     0.08084038   -0.14595361    0.20724790
     atom    2 type  1   force =     0.08085786    0.14596449   -0.20724494
     atom    3 type  1   force =     0.08085786   -0.14596449   -0.20724494
     atom    4 type  1   force =     0.08084038    0.14595361    0.20724790
     atom    5 type  1   force =    -0.03998321    0.00000000    0.57132564
     atom    6 type  1   force =    -0.03996444   -0.00000000   -0.57133339
     atom    7 type  1   force =     0.08084032   -0.14595362    0.20724908
     atom    8 type  1   force =     0.08085771    0.14596464   -0.20724590
     atom    9 type  1   force =     0.08085771   -0.14596464   -0.20724590
     atom   10 type  1   force =     0.08084032    0.14595362    0.20724908
     atom   11 type  1   force =    -0.03998309   -0.00000000    0.57132767
     atom   12 type  1   force =    -0.03996464   -0.00000000   -0.57133153
     atom   13 type  2   force =    -0.01829643   -0.00000000   -0.13918258
     atom   14 type  2   force =    -0.01829003    0.00000000    0.13917472
     atom   15 type  2   force =    -0.01829714   -0.00000000   -0.13917936
     atom   16 type  2   force =    -0.01828938    0.00000000    0.13917821
     atom   17 type  3   force =    -0.76345297    2.40414047   -1.44476000
     atom   18 type  3   force =    -0.76342675   -2.40413929    1.44475154
     atom   19 type  3   force =    -0.76342675    2.40413929    1.44475154
     atom   20 type  3   force =    -0.76345297   -2.40414047   -1.44476000
     atom   21 type  3   force =    -0.96352151    0.00000000    2.65667009
     atom   22 type  3   force =    -0.96354847    0.00000000   -2.65667246
     atom   23 type  3   force =     2.38698132    0.00000000   -0.42659032
     atom   24 type  3   force =     2.38698694   -0.00000000    0.42660906
     atom   25 type  3   force =    -0.76345409    2.40414129   -1.44476151
     atom   26 type  3   force =    -0.76342783   -2.40413985    1.44475359
     atom   27 type  3   force =    -0.76342783    2.40413985    1.44475359
     atom   28 type  3   force =    -0.76345409   -2.40414129   -1.44476151
     atom   29 type  3   force =    -0.96352041   -0.00000000    2.65667406
     atom   30 type  3   force =    -0.96354947    0.00000000   -2.65666853
     atom   31 type  3   force =     2.38698258    0.00000000   -0.42659226
     atom   32 type  3   force =     2.38698807   -0.00000000    0.42661145
     The local contribution  to forces
     atom    1 type  1   force =    -0.08397131    0.15503828   -0.21418556
     atom    2 type  1   force =    -0.08398861   -0.15504937    0.21418260
     atom    3 type  1   force =    -0.08398861    0.15504937    0.21418260
     atom    4 type  1   force =    -0.08397131   -0.15503828   -0.21418556
     atom    5 type  1   force =     0.04803910    0.00000000   -0.60456609
     atom    6 type  1   force =     0.04801916   -0.00000000    0.60457455
     atom    7 type  1   force =    -0.08397129    0.15503831   -0.21418668
     atom    8 type  1   force =    -0.08398845   -0.15504958    0.21418351
     atom    9 type  1   force =    -0.08398845    0.15504958    0.21418351
     atom   10 type  1   force =    -0.08397129   -0.15503831   -0.21418668
     atom   11 type  1   force =     0.04803894    0.00000000   -0.60456811
     atom   12 type  1   force =     0.04801937   -0.00000000    0.60457268
     atom   13 type  2   force =     0.01960943   -0.00000000    0.13889161
     atom   14 type  2   force =     0.01960415    0.00000000   -0.13888331
     atom   15 type  2   force =     0.01961032   -0.00000000    0.13888841
     atom   16 type  2   force =     0.01960337    0.00000000   -0.13888692
     atom   17 type  3   force =     0.72171226   -2.31680674    1.37031674
     atom   18 type  3   force =     0.72168648    2.31680499   -1.37030966
     atom   19 type  3   force =     0.72168648   -2.31680499   -1.37030966
     atom   20 type  3   force =     0.72171226    2.31680674    1.37031674
     atom   21 type  3   force =     0.91669660   -0.00000000   -2.53516593
     atom   22 type  3   force =     0.91672348    0.00000000    2.53516799
     atom   23 type  3   force =    -2.25300540   -0.00000000    0.41577524
     atom   24 type  3   force =    -2.25301197   -0.00000000   -0.41579526
     atom   25 type  3   force =     0.72171352   -2.31680772    1.37031791
     atom   26 type  3   force =     0.72168763    2.31680565   -1.37031155
     atom   27 type  3   force =     0.72168763   -2.31680565   -1.37031155
     atom   28 type  3   force =     0.72171352    2.31680772    1.37031791
     atom   29 type  3   force =     0.91669536   -0.00000000   -2.53516891
     atom   30 type  3   force =     0.91672457    0.00000000    2.53516503
     atom   31 type  3   force =    -2.25300686    0.00000000    0.41577656
     atom   32 type  3   force =    -2.25301323   -0.00000000   -0.41579720
     The core correction contribution to forces
     atom    1 type  1   force =     0.00000000    0.00000000    0.00000000
     atom    2 type  1   force =     0.00000000    0.00000000    0.00000000
     atom    3 type  1   force =     0.00000000    0.00000000    0.00000000
     atom    4 type  1   force =     0.00000000    0.00000000    0.00000000
     atom    5 type  1   force =     0.00000000    0.00000000    0.00000000
     atom    6 type  1   force =     0.00000000    0.00000000    0.00000000
     atom    7 type  1   force =     0.00000000    0.00000000    0.00000000
     atom    8 type  1   force =     0.00000000    0.00000000    0.00000000
     atom    9 type  1   force =     0.00000000    0.00000000    0.00000000
     atom   10 type  1   force =     0.00000000    0.00000000    0.00000000
     atom   11 type  1   force =     0.00000000    0.00000000    0.00000000
     atom   12 type  1   force =     0.00000000    0.00000000    0.00000000
     atom   13 type  2   force =     0.00006040    0.00000000   -0.00005214
     atom   14 type  2   force =     0.00006043   -0.00000000    0.00005218
     atom   15 type  2   force =     0.00006041    0.00000000   -0.00005215
     atom   16 type  2   force =     0.00006043   -0.00000000    0.00005217
     atom   17 type  3   force =     0.00069309   -0.00235174    0.00090979
     atom   18 type  3   force =     0.00069304    0.00235174   -0.00090978
     atom   19 type  3   force =     0.00069304   -0.00235174   -0.00090978
     atom   20 type  3   force =     0.00069309    0.00235174    0.00090979
     atom   21 type  3   force =     0.00088674    0.00000000   -0.00214180
     atom   22 type  3   force =     0.00088679   -0.00000000    0.00214179
     atom   23 type  3   force =    -0.00215899   -0.00000000    0.00012711
     atom   24 type  3   force =    -0.00215902    0.00000000   -0.00012716
     atom   25 type  3   force =     0.00069310   -0.00235174    0.00090978
     atom   26 type  3   force =     0.00069304    0.00235174   -0.00090978
     atom   27 type  3   force =     0.00069304   -0.00235174   -0.00090978
     atom   28 type  3   force =     0.00069310    0.00235174    0.00090978
     atom   29 type  3   force =     0.00088674    0.00000000   -0.00214180
     atom   30 type  3   force =     0.00088680   -0.00000000    0.00214179
     atom   31 type  3   force =    -0.00215900    0.00000000    0.00012711
     atom   32 type  3   force =    -0.00215902    0.00000000   -0.00012716
     The Hubbard contrib.    to forces
     atom    1 type  1   force =     0.00000000    0.00000000    0.00000000
     atom    2 type  1   force =     0.00000000    0.00000000    0.00000000
     atom    3 type  1   force =     0.00000000    0.00000000    0.00000000
     atom    4 type  1   force =     0.00000000    0.00000000    0.00000000
     atom    5 type  1   force =     0.00000000    0.00000000    0.00000000
     atom    6 type  1   force =     0.00000000    0.00000000    0.00000000
     atom    7 type  1   force =     0.00000000    0.00000000    0.00000000
     atom    8 type  1   force =     0.00000000    0.00000000    0.00000000
     atom    9 type  1   force =     0.00000000    0.00000000    0.00000000
     atom   10 type  1   force =     0.00000000    0.00000000    0.00000000
     atom   11 type  1   force =     0.00000000    0.00000000    0.00000000
     atom   12 type  1   force =     0.00000000    0.00000000    0.00000000
     atom   13 type  2   force =     0.00000000    0.00000000    0.00000000
     atom   14 type  2   force =     0.00000000    0.00000000    0.00000000
     atom   15 type  2   force =     0.00000000    0.00000000    0.00000000
     atom   16 type  2   force =     0.00000000    0.00000000    0.00000000
     atom   17 type  3   force =     0.00000000    0.00000000    0.00000000
     atom   18 type  3   force =     0.00000000    0.00000000    0.00000000
     atom   19 type  3   force =     0.00000000    0.00000000    0.00000000
     atom   20 type  3   force =     0.00000000    0.00000000    0.00000000
     atom   21 type  3   force =     0.00000000    0.00000000    0.00000000
     atom   22 type  3   force =     0.00000000    0.00000000    0.00000000
     atom   23 type  3   force =     0.00000000    0.00000000    0.00000000
     atom   24 type  3   force =     0.00000000    0.00000000    0.00000000
     atom   25 type  3   force =     0.00000000    0.00000000    0.00000000
     atom   26 type  3   force =     0.00000000    0.00000000    0.00000000
     atom   27 type  3   force =     0.00000000    0.00000000    0.00000000
     atom   28 type  3   force =     0.00000000    0.00000000    0.00000000
     atom   29 type  3   force =     0.00000000    0.00000000    0.00000000
     atom   30 type  3   force =     0.00000000    0.00000000    0.00000000
     atom   31 type  3   force =     0.00000000    0.00000000    0.00000000
     atom   32 type  3   force =     0.00000000    0.00000000    0.00000000
     The SCF correction term to forces
     atom    1 type  1   force =     0.00000002   -0.00000005   -0.00000004
     atom    2 type  1   force =    -0.00000002   -0.00000005    0.00000002
     atom    3 type  1   force =    -0.00000002    0.00000005    0.00000002
     atom    4 type  1   force =     0.00000002    0.00000005   -0.00000004
     atom    5 type  1   force =    -0.00000003   -0.00000000   -0.00000001
     atom    6 type  1   force =     0.00000001   -0.00000000    0.00000018
     atom    7 type  1   force =     0.00000006    0.00000000   -0.00000013
     atom    8 type  1   force =    -0.00000003   -0.00000007    0.00000014
     atom    9 type  1   force =    -0.00000003    0.00000007    0.00000014
     atom   10 type  1   force =     0.00000006   -0.00000000   -0.00000013
     atom   11 type  1   force =    -0.00000004    0.00000000   -0.00000014
     atom   12 type  1   force =     0.00000001   -0.00000000    0.00000002
     atom   13 type  2   force =     0.00000005    0.00000000    0.00000031
     atom   14 type  2   force =    -0.00000004   -0.00000000   -0.00000002
     atom   15 type  2   force =     0.00000001    0.00000000   -0.00000012
     atom   16 type  2   force =    -0.00000002    0.00000000   -0.00000032
     atom   17 type  3   force =     0.00000019   -0.00000049    0.00000022
     atom   18 type  3   force =     0.00000001    0.00000011   -0.00000023
     atom   19 type  3   force =     0.00000001   -0.00000011   -0.00000023
     atom   20 type  3   force =     0.00000019    0.00000049    0.00000022
     atom   21 type  3   force =     0.00000018    0.00000000   -0.00000028
     atom   22 type  3   force =     0.00000004    0.00000000    0.00000085
     atom   23 type  3   force =    -0.00000043   -0.00000000   -0.00000007
     atom   24 type  3   force =    -0.00000018   -0.00000000   -0.00000005
     atom   25 type  3   force =     0.00000021   -0.00000049    0.00000062
     atom   26 type  3   force =     0.00000002    0.00000015   -0.00000042
     atom   27 type  3   force =     0.00000002   -0.00000015   -0.00000042
     atom   28 type  3   force =     0.00000021    0.00000049    0.00000062
     atom   29 type  3   force =     0.00000020    0.00000000   -0.00000096
     atom   30 type  3   force =     0.00000004   -0.00000000    0.00000018
     atom   31 type  3   force =    -0.00000047   -0.00000000    0.00000048
     atom   32 type  3   force =    -0.00000022   -0.00000000   -0.00000047

     Total force =     0.002431     Total SCF correction =     0.000002


     Computing stress (Cartesian axis) and pressure

          total   stress  (Ry/bohr**3)                   (kbar)     P=       -0.40
  -0.00000265   0.00000000  -0.00000000           -0.39        0.00       -0.00
   0.00000000  -0.00000220  -0.00000000            0.00       -0.32       -0.00
  -0.00000000  -0.00000000  -0.00000335           -0.00       -0.00       -0.49

     kinetic stress (kbar)   5159.56     -0.00     -0.00
                               -0.00   5159.23     -0.00
                               -0.00     -0.00   5158.23

     local   stress (kbar)  -3695.03     -0.00     -0.00
                               -0.00  -3299.24      0.00
                               -0.00      0.00  -3123.91

     nonloc. stress (kbar)   2980.97     -0.00      0.00
                               -0.00   2986.67     -0.00
                                0.00     -0.00   2982.12

     hartree stress (kbar)   1474.53      0.00     -0.00
                                0.00   1302.87     -0.00
                               -0.00     -0.00   1236.89

     exc-cor stress (kbar)  -1022.82      0.00     -0.00
                                0.00  -1023.06     -0.00
                               -0.00     -0.00  -1023.06

     corecor stress (kbar)   -497.32     -0.00     -0.00
                               -0.00   -497.52      0.00
                               -0.00      0.00   -497.34

     ewald   stress (kbar)  -4400.27      0.00      0.00
                                0.00  -4629.27     -0.00
                                0.00     -0.00  -4733.41

     hubbard stress (kbar)      0.00      0.00      0.00
                                0.00      0.00      0.00
                                0.00      0.00      0.00

     DFT-D   stress (kbar)      0.00      0.00      0.00
                                0.00      0.00      0.00
                                0.00      0.00      0.00

     XDM     stress (kbar)      0.00      0.00      0.00
                                0.00      0.00      0.00
                                0.00      0.00      0.00

     dft-nl  stress (kbar)      0.00      0.00      0.00
                                0.00      0.00      0.00
                                0.00      0.00      0.00

     TS-vdW  stress (kbar)      0.00      0.00      0.00
                                0.00      0.00      0.00
                                0.00      0.00      0.00


                                0.00      0.00      0.00
                                0.00      0.00      0.00


                                0.00      0.00      0.00


     Writing all to output data dir ./tmp1/pwscf.save/
 
     init_run     :     17.77s CPU     10.04s WALL (       2 calls)
     electrons    :   9549.06s CPU   5350.83s WALL (      24 calls)
     update_pot   :     17.05s CPU      8.69s WALL (      22 calls)
     forces       :     76.37s CPU     39.72s WALL (      24 calls)
     stress       :    492.58s CPU    254.65s WALL (      24 calls)

     Called by init_run:
     wfcinit      :     15.96s CPU      8.78s WALL (       2 calls)
     wfcinit:atom :      0.11s CPU      0.07s WALL (      32 calls)
     wfcinit:wfcr :     15.06s CPU      8.15s WALL (      32 calls)
     potinit      :      0.41s CPU      0.21s WALL (       2 calls)
     hinit0       :      0.73s CPU      0.46s WALL (       2 calls)

     Called by electrons:
     c_bands      :   8689.79s CPU   4882.11s WALL (     333 calls)
     sum_band     :    806.09s CPU    430.88s WALL (     333 calls)
     v_of_rho     :     11.95s CPU      6.39s WALL (     343 calls)
     v_h          :      1.05s CPU      0.59s WALL (     343 calls)
     v_xc         :     12.41s CPU      6.61s WALL (     391 calls)
     newd         :     25.61s CPU     13.22s WALL (     343 calls)
     mix_rho      :     12.67s CPU     11.09s WALL (     333 calls)

     Called by c_bands:
     init_us_2    :    115.79s CPU     67.68s WALL (   11456 calls)
     init_us_2:cp :    115.56s CPU     67.61s WALL (   11456 calls)
     cegterg      :   8152.95s CPU   4325.75s WALL (    5328 calls)

     Called by sum_band:
     sum_band:wei :      0.01s CPU      0.01s WALL (     333 calls)
     sum_band:loo :    765.84s CPU    409.83s WALL (     333 calls)
     sum_band:buf :     10.59s CPU      8.37s WALL (    5328 calls)
     sum_band:ini :     58.63s CPU     30.45s WALL (    5328 calls)
     sum_band:cal :    153.93s CPU     79.97s WALL (    5328 calls)
     sum_band:bec :      1.47s CPU      1.35s WALL (    5328 calls)
     addusdens    :     35.03s CPU     18.19s WALL (     333 calls)
     addusd:skk   :      1.38s CPU      1.13s WALL (     999 calls)
     addusd:dgemm :     22.18s CPU     11.69s WALL (     999 calls)
     addusd:qvan2 :      8.34s CPU      4.97s WALL (     999 calls)

     Called by *egterg:
     cdiaghg      :    391.92s CPU    279.84s WALL (   23198 calls)
     cegterg:over :    424.09s CPU    224.56s WALL (   18446 calls)
     cegterg:upda :    418.79s CPU    216.88s WALL (   18446 calls)
     cegterg:last :    952.76s CPU    490.07s WALL (   14435 calls)
     cdiaghg:chol :     20.83s CPU     11.67s WALL (   23198 calls)
     cdiaghg:inve :      2.32s CPU      1.29s WALL (   23198 calls)
     cdiaghg:para :     39.12s CPU     22.83s WALL (   46396 calls)
     h_psi        :   4832.35s CPU   2539.87s WALL (   23806 calls)
     s_psi        :    902.64s CPU    450.59s WALL (   23806 calls)
     g_psi        :      8.76s CPU      7.71s WALL (   18446 calls)

     Called by h_psi:
     h_psi:calbec :    569.33s CPU    295.70s WALL (   23806 calls)
     vloc_psi     :   3194.62s CPU   1702.36s WALL (   23806 calls)
     add_vuspsi   :   1041.53s CPU    525.70s WALL (   23806 calls)

     General routines
     calbec       :    843.19s CPU    441.13s WALL (   31054 calls)
     fft          :     11.40s CPU      6.23s WALL (    4409 calls)
     ffts         :      0.88s CPU      0.50s WALL (     333 calls)
     fftw         :   3621.18s CPU   1873.65s WALL ( 3001638 calls)
     davcio       :     53.80s CPU     78.66s WALL (   20924 calls)
 
     Parallel routines
 
     PWSCF        :      2h49m CPU      1h35m WALL

 
   This run was terminated on:  19:46:36   4Feb2023            

=------------------------------------------------------------------------------=
   JOB DONE.
=------------------------------------------------------------------------------=
